<VTKFile type="UnstructuredGrid" version="0.1" byte_order="LittleEndian">
  <UnstructuredGrid>
    <Piece NumberOfPoints="9022" NumberOfCells="17573">
      <Points>
        <DataArray type = "Float64" NumberOfComponents="3" format="ascii">
3.5 2.00105 0.0 
3.5 1.99895 0.0 
0 0 0.0 
12 0 0.0 
0 4 0.0 
12 4 0.0 
7.08857 0.630152 0.0 
3.25494 2.03688 0.0 
2.24264 1.09011 0.0 
5.33201 3.87324 0.0 
3.46822 2.00422 0.0 
3.4492 2.00609 0.0 
9.75011 0.429191 0.0 
1.82507 2.40746 0.0 
3.4284 2.00811 0.0 
3.65919 2.90828 0.0 
3.40943 2.00992 0.0 
4.29545 2.8495 0.0 
3.39055 2.01171 0.0 
10.5646 0.785159 0.0 
3.37064 2.01358 0.0 
4.89725 2.24556 0.0 
3.37374 2.27123 0.0 
1.98766 0.466428 0.0 
3.3441 2.01602 0.0 
6.91532 0 0.0 
3.32932 2.01737 0.0 
3.31416 2.01873 0.0 
4.37488 2.8901 0.0 
3.30101 2.01991 0.0 
2.8263 1.93104 0.0 
7.49638 1.16269 0.0 
3.28104 2.02167 0.0 
11.443 2.87979 0.0 
3.26112 2.02341 0.0 
7.27082 2.03327 0.0 
1.67159 2.79746 0.0 
4.90686 3.205 0.0 
3.23123 2.02597 0.0 
6.49446 2.23798 0.0 
8.28155 1.27045 0.0 
3.21131 2.02765 0.0 
3.20135 2.02848 0.0 
3.18889 2.02951 0.0 
3.17635 2.03053 0.0 
0.759789 2.22952 0.0 
1.92819 1.35187 0.0 
3.16034 2.03183 0.0 
3.15052 2.03262 0.0 
0.628639 2.20506 0.0 
4.48528 2.70189 0.0 
3.13957 2.03349 0.0 
7.00262 2.02534 0.0 
3.1296 2.03426 0.0 
3.43651 1.96462 0.0 
3.12171 2.03487 0.0 
7.53601 2.98663 0.0 
3.11166 2.03562 0.0 
5.02128 1.95069 0.0 
3.10169 2.03635 0.0 
5.60785 3.62087 0.0 
3.0922 2.03704 0.0 
9.87757 2.91797 0.0 
3.08224 2.03774 0.0 
6.05081 2.99563 0.0 
3.07177 2.03847 0.0 
3.05986 2.03927 0.0 
3.04983 2.03993 0.0 
8.08727 1.03907 0.0 
3.03985 2.04058 0.0 
4.30691 0 0.0 
3.02987 2.04121 0.0 
8.66013 2.72876 0.0 
3.0199 2.04182 0.0 
3.00992 2.04242 0.0 
1.77866 3.10846 0.0 
3.00193 2.04289 0.0 
5.38338 1.70527 0.0 
6.92709 2.09023 0.0 
2.98711 2.04373 0.0 
6.34547 0.857899 0.0 
2.97747 2.04427 0.0 
8.24797 3.03812 0.0 
2.96958 2.04469 0.0 
3.47062 0 0.0 
2.96201 2.04509 0.0 
7.89508 3.7629 0.0 
2.95043 2.04569 0.0 
9.9963 2.9126 0.0 
2.94005 2.0462 0.0 
2.93089 2.04665 0.0 
12 0.98832 0.0 
8.02916 4 0.0 
2.92007 2.04715 0.0 
9.25464 2.64568 0.0 
2.91208 2.04752 0.0 
4.90901 0.0899404 0.0 
10.8572 2.96282 0.0 
2.8996 2.04807 0.0 
2.8946 2.04828 0.0 
8.13323 0.520161 0.0 
2.88961 2.04847 0.0 
8.49483 3.07485 0.0 
2.88461 2.04866 0.0 
2.88003 2.04882 0.0 
2.23724 1.6731 0.0 
3.94283 1.77349 0.0 
2.87462 2.04899 0.0 
8.13877 0.9569 0.0 
2.86962 2.04914 0.0 
6.52954 2.17864 0.0 
2.9079 2.10075 0.0 
2.85755 2.04945 0.0 
2.86213 2.04934 0.0 
3.57573 2.26576 0.0 
11.0785 1.20913 0.0 
2.85213 2.04957 0.0 
2.714 2.05692 0.0 
2.84714 2.04967 0.0 
9.20346 0.750943 0.0 
2.84214 2.04975 0.0 
2.83714 2.04983 0.0 
6.22695 2.35847 0.0 
2.7008 2.0473 0.0 
2.83214 2.04989 0.0 
2.82714 2.04994 0.0 
6.54064 0.464427 0.0 
2.81965 2.04999 0.0 
2.82215 2.04997 0.0 
5.40424 0.500282 0.0 
6.21702 1.68386 0.0 
2.81215 2.05001 0.0 
2.80472 2.05001 0.0 
2.79507 2.04997 0.0 
2.79965 2.05 0.0 
5.55584 1.18487 0.0 
3.08983 1.86882 0.0 
2.78966 2.04993 0.0 
3.01301 0.888971 0.0 
2.78466 2.04988 0.0 
9.45522 2.67434 0.0 
2.77966 2.04982 0.0 
7.88728 1.90278 0.0 
2.77466 2.04975 0.0 
12 0.7415 0.0 
2.77216 2.04971 0.0 
2.76716 2.04961 0.0 
2.76467 2.04956 0.0 
8.49528 2.50007 0.0 
2.75967 2.04946 0.0 
2.75467 2.04934 0.0 
3.5344 1.50295 0.0 
2.74967 2.0492 0.0 
1.75036 0.809119 0.0 
2.74468 2.04906 0.0 
9.51856 2.75585 0.0 
2.73968 2.04891 0.0 
2.73469 2.04874 0.0 
9.41426 2.76593 0.0 
2.73219 2.04865 0.0 
2.72719 2.04847 0.0 
2.72261 2.04829 0.0 
1.7 2.21354 0.0 
5.00775 1.52929 0.0 
2.7172 2.04806 0.0 
8.83747 2.67733 0.0 
2.56273 3.10912 0.0 
2.71221 2.04785 0.0 
3.38059 3.04212 0.0 
2.70472 2.0475 0.0 
2.67763 2.04605 0.0 
2.69045 2.04677 0.0 
2.69475 2.047 0.0 
6.62286 2.79864 0.0 
3.76183 1.38235 0.0 
2.68477 2.04646 0.0 
4.79305 1.92641 0.0 
5.47178 2.96528 0.0 
2.67479 2.04588 0.0 
9.04251 2.70224 0.0 
2.66978 2.04558 0.0 
2.6648 2.04526 0.0 
9.48102 3.02398 0.0 
2.65981 2.04494 0.0 
8.79605 3.01706 0.0 
2.65482 2.04461 0.0 
12 0.247292 0.0 
2.64741 2.04409 0.0 
8.98557 2.77888 0.0 
7.99404 0.835602 0.0 
2.63986 2.04355 0.0 
8.28014 0.713082 0.0 
2.63239 2.04298 0.0 
8.44199 0.812453 0.0 
2.62498 2.0424 0.0 
8.23459 1.16471 0.0 
2.62242 2.0422 0.0 
3.28021 0.972854 0.0 
2.61495 2.04158 0.0 
9.08968 2.78231 0.0 
2.60755 2.04095 0.0 
9.42671 3.11439 0.0 
8.28941 1.0803 0.0 
2.60001 2.04028 0.0 
6.67584 2.2739 0.0 
2.58798 2.03916 0.0 
2.59254 2.03959 0.0 
5.04992 3.14127 0.0 
3.61857 3.15859 0.0 
8.97315 2.9414 0.0 
2.58259 2.03864 0.0 
9.42058 2.93769 0.0 
3.23743 2.71347 0.0 
2.57513 2.0379 0.0 
2.57264 2.03764 0.0 
2.57016 2.03735 0.0 
2.56768 2.03702 0.0 
2.56522 2.03662 0.0 
2.56276 2.03616 0.0 
2.56031 2.03565 0.0 
2.55788 2.03508 0.0 
2.55546 2.03446 0.0 
2.55305 2.03379 0.0 
2.55066 2.03307 0.0 
2.54828 2.0323 0.0 
2.54592 2.03148 0.0 
2.54357 2.03062 0.0 
2.54124 2.02971 0.0 
2.53893 2.02876 0.0 
2.53664 2.02777 0.0 
2.53436 2.02674 0.0 
2.5321 2.02567 0.0 
2.52986 2.02456 0.0 
2.52764 2.02342 0.0 
2.52544 2.02224 0.0 
2.52325 2.02103 0.0 
2.52108 2.01978 0.0 
2.51893 2.01851 0.0 
2.5168 2.0172 0.0 
2.51469 2.01587 0.0 
2.51259 2.01451 0.0 
2.51052 2.01312 0.0 
2.50845 2.0117 0.0 
2.50644 2.01022 0.0 
2.50456 2.00858 0.0 
2.50283 2.00678 0.0 
2.50139 2.00474 0.0 
2.50037 2.00246 0.0 
2.5 2 0.0 
2.50037 1.99754 0.0 
2.50139 1.99526 0.0 
2.50283 1.99322 0.0 
2.50456 1.99142 0.0 
2.50644 1.98978 0.0 
2.50845 1.9883 0.0 
2.51052 1.98688 0.0 
2.51259 1.98549 0.0 
2.51469 1.98413 0.0 
2.5168 1.9828 0.0 
2.51893 1.98149 0.0 
2.52108 1.98022 0.0 
2.52325 1.97897 0.0 
2.52544 1.97776 0.0 
2.52764 1.97658 0.0 
2.52986 1.97544 0.0 
2.5321 1.97433 0.0 
2.53436 1.97326 0.0 
2.53664 1.97223 0.0 
2.53893 1.97124 0.0 
2.54124 1.97029 0.0 
2.54357 1.96938 0.0 
2.54592 1.96852 0.0 
2.54828 1.9677 0.0 
2.55066 1.96693 0.0 
2.55305 1.96621 0.0 
2.55546 1.96554 0.0 
2.55788 1.96492 0.0 
2.56031 1.96435 0.0 
2.56276 1.96384 0.0 
2.56522 1.96338 0.0 
2.56768 1.96298 0.0 
2.57016 1.96265 0.0 
2.57264 1.96236 0.0 
2.57513 1.9621 0.0 
2.58259 1.96136 0.0 
8.75549 0 0.0 
2.58998 1.96065 0.0 
4.9905 2.24015 0.0 
2.59503 1.96018 0.0 
2.60001 1.95972 0.0 
2.37134 1.39481 0.0 
2.60499 1.95928 0.0 
2.60997 1.95884 0.0 
7.9704 1.8341 0.0 
2.61495 1.95842 0.0 
2.61993 1.95801 0.0 
6.67775 2.38383 0.0 
2.62491 1.9576 0.0 
2.62989 1.95721 0.0 
6.05757 2.47597 0.0 
2.63488 1.95683 0.0 
2.63986 1.95645 0.0 
2.64485 1.95609 0.0 
4.49088 0.755642 0.0 
2.64983 1.95574 0.0 
2.6623 1.9549 0.0 
2.65482 1.95539 0.0 
2.65981 1.95506 0.0 
8.17613 1.24546 0.0 
8.69371 0.107524 0.0 
2.66729 1.95458 0.0 
11.2956 1.25205 0.0 
8.33045 1.37709 0.0 
2.67228 1.95427 0.0 
2.67727 1.95397 0.0 
8.77818 2.48508 0.0 
2.68475 1.95354 0.0 
1.85787 1.94567 0.0 
2.69217 1.95314 0.0 
11.1454 3.21 0.0 
2.69723 1.95288 0.0 
2.69973 1.95275 0.0 
1.67857 2.47207 0.0 
2.70715 1.95239 0.0 
3.17953 2.99091 0.0 
5.22691 1.8236 0.0 
2.71221 1.95215 0.0 
2.7172 1.95194 0.0 
6.49351 3.12279 0.0 
2.7222 1.95173 0.0 
6.56426 2.37578 0.0 
2.72719 1.95153 0.0 
7.07431 1.95849 0.0 
10.5184 4 0.0 
2.73219 1.95135 0.0 
2.73718 1.95118 0.0 
4.07218 1.85879 0.0 
12 0.494501 0.0 
2.74218 1.95102 0.0 
5.57357 0.60779 0.0 
2.74967 1.9508 0.0 
2.76007 1.95054 0.0 
2.7571 1.9506 0.0 
6.7275 2.71017 0.0 
1.27321 0 0.0 
2.76467 1.95043 0.0 
2.76966 1.95034 0.0 
6.18979 0.432941 0.0 
2.77216 1.95029 0.0 
2.77716 1.95021 0.0 
2.77966 1.95018 0.0 
2.78466 1.95012 0.0 
2.79209 1.95005 0.0 
5.25203 2.73311 0.0 
2.79715 1.95001 0.0 
5.11022 1.87216 0.0 
2.61244 1.43557 0.0 
2.80215 1.94999 0.0 
2.80715 1.94998 0.0 
6.4647 3.18265 0.0 
2.81215 1.94999 0.0 
2.81715 1.95 0.0 
3.28445 1.28944 0.0 
6.537 2.04355 0.0 
2.35313 2.70197 0.0 
2.82215 1.95003 0.0 
2.82714 1.95006 0.0 
2.82964 1.95009 0.0 
6.69382 3.20227 0.0 
2.83707 1.95017 0.0 
2.84464 1.95029 0.0 
2.84964 1.95038 0.0 
3.68248 0 0.0 
2.85463 1.95048 0.0 
4.54367 2.04622 0.0 
5.32446 2.8262 0.0 
2.86213 1.95066 0.0 
2.86713 1.95079 0.0 
1.78353 1.97644 0.0 
2.87212 1.95093 0.0 
2.87712 1.95109 0.0 
1.78261 2.79425 0.0 
2.88211 1.95125 0.0 
2.76828 1.14753 0.0 
2.88711 1.95143 0.0 
2.41588 2.51994 0.0 
2.8921 1.95162 0.0 
4.06213 1.65537 0.0 
2.8971 1.95183 0.0 
12 1.23488 0.0 
2.90417 1.95213 0.0 
2.91208 1.95248 0.0 
6.60087 2.00297 0.0 
2.92207 1.95294 0.0 
3.75 4 0.0 
2.93157 1.95339 0.0 
1.73985 0 0.0 
2.94154 1.95387 0.0 
2.95152 1.95437 0.0 
4.50004 4 0.0 
2.96201 1.95491 0.0 
2.30275 2.4091 0.0 
2.9715 1.95541 0.0 
12 2.76484 0.0 
2.98147 1.95595 0.0 
0.966707 1.21788 0.0 
2.99145 1.95651 0.0 
7.52077 1.95244 0.0 
3.00193 1.95711 0.0 
4.25001 4 0.0 
3.01143 1.95767 0.0 
3.70184 2.08705 0.0 
3.02139 1.95827 0.0 
11.6154 4 0.0 
3.03137 1.95889 0.0 
3.19769 0.937683 0.0 
3.04135 1.95952 0.0 
4.49687 2.33536 0.0 
3.05132 1.96016 0.0 
2.59081 2.05794 0.0 
3.0618 1.96086 0.0 
6.67764 1.24793 0.0 
3.07177 1.96153 0.0 
0.769062 1.4551 0.0 
3.08126 1.96219 0.0 
6.4278 2.27404 0.0 
3.09172 1.96293 0.0 
3.09837 1.96341 0.0 
10.1159 4 0.0 
2.51711 2.44227 0.0 
3.11166 1.96438 0.0 
7.45275 3.6345 0.0 
3.12114 1.96509 0.0 
3.1311 1.96585 0.0 
6.86748 2.2434 0.0 
3.14156 1.96667 0.0 
4.47388 1.13527 0.0 
3.15104 1.96742 0.0 
9.32943 0.96966 0.0 
2.84791 1.9234 0.0 
3.17146 1.96907 0.0 
6.44021 2.18497 0.0 
3.18336 1.97004 0.0 
4 4 0.0 
3.20135 1.97152 0.0 
3.22072 1.97314 0.0 
5.0051 3.21934 0.0 
3.48761 3.05547 0.0 
3.23123 1.97403 0.0 
2.38071 2.59565 0.0 
3.24555 1.97525 0.0 
8.58402 0.30847 0.0 
3.26112 1.97659 0.0 
5.77845 1.60796 0.0 
5.50103 4 0.0 
3.28104 1.97833 0.0 
6.26446 2.5439 0.0 
5.54556 3.74306 0.0 
3.30038 1.98003 0.0 
8.26583 1.45566 0.0 
3.07903 0.946886 0.0 
3.31787 1.9816 0.0 
1.68552 0.882533 0.0 
3.33233 1.9829 0.0 
8.37767 1.48423 0.0 
8.68938 1.7583 0.0 
3.35073 1.98458 0.0 
1.50522 0 0.0 
3.37064 1.98642 0.0 
1.04781 0 0.0 
9.80238 0 0.0 
3.39055 1.98829 0.0 
8.22608 1.63221 0.0 
10.3114 4 0.0 
3.41483 1.99059 0.0 
6.59792 1.73349 0.0 
3.42937 1.99199 0.0 
2.78196 1.93837 0.0 
[...]
<PointData>
  <DataArray type = "Float64" Name="BLMLevelSetLayer1" format="ascii">
0.17552
0.17552
-3.02417
-8.55636
-3.02417
-8.55636
-3.66524
0.162632
-0.753824
-2.4439
0.17552
0.175521
-6.26871
-0.611623
0.17552
-0.745571
0.17552
-0.987498
0.17552
-6.99257
0.17552
-1.24297
-0.0813281
-1.42695
0.17552
-3.78178
0.17552
0.17552
-1.07181
0.175522
0.156502
-3.90742
0.17552
-7.81593
0.17552
-3.59544
-0.972073
-1.67616
0.17552
-2.8283
-4.66121
0.17552
0.17552
0.175519
0.175521
-1.58052
-0.685725
0.17552
0.175521
-1.70791
-1.03359
0.175519
-3.32718
0.175519
0.147597
0.17552
-3.97909
0.17552
-1.34652
0.17552
-2.48284
0.17552
-6.26763
0.17552
-2.56233
0.17552
0.175519
0.175519
-4.5111
0.175519
-1.98015
0.175519
-5.03567
0.175519
0.175519
-1.14185
0.17552
-1.73062
-3.25273
0.175518
-2.89021
0.175519
-4.68439
0.175519
-1.81181
0.17552
-4.55955
0.17552
-6.38442
0.175519
0.175521
-8.38435
-4.77514
0.175519
-5.61511
0.17552
-2.19716
-7.24428
0.175516
0.175516
-4.68798
0.175516
-4.93343
0.175516
0.175518
-0.2403
-0.321405
0.175516
-4.57885
0.175516
-2.85923
0.12252
0.175516
0.17552
-0.0998081
-7.44402
0.175521
0.16653
0.175515
-5.66288
0.175521
0.175515
-2.57475
0.17552
0.17552
0.175515
-3.23039
0.175516
0.17552
-2.24773
-2.55971
0.175521
0.175516
0.175517
0.175516
-2.03564
0.0817811
0.175516
-0.891629
0.175516
-5.81764
0.175516
-4.21282
0.175516
-8.41699
0.17552
0.175515
0.175516
-4.84462
0.175516
0.175516
-0.32144
0.175516
-1.22625
0.175516
-5.89018
0.175516
0.175516
-5.78799
0.17552
0.175515
0.175521
-0.652617
-1.40368
0.175515
-5.20463
-0.892843
0.17552
-0.849721
0.175517
0.175518
0.175519
0.175517
-3.04758
-0.49437
0.175517
-1.11956
-2.0194
0.175517
-5.41117
0.175516
0.175517
-5.89235
0.175517
-5.21711
0.175517
-8.50309
0.175516
-5.36492
-4.46665
0.175516
-4.77455
0.17552
-4.90691
0.175517
-4.63201
0.17552
-0.826251
0.175517
-5.46849
0.175515
-5.85485
-4.70119
0.175516
-3.01202
0.175516
0.17552
-1.74863
-0.988077
-5.37782
0.17552
-5.81869
-0.510126
0.17551
0.17552
0.175438
0.175403
0.175433
0.17552
0.175438
0.175411
0.175439
0.17552
0.175445
0.17542
0.175446
0.17552
0.175452
0.17543
0.175453
0.17552
0.175459
0.175439
0.17546
0.17552
0.175465
0.175448
0.175466
0.17552
0.175471
0.175451
0.175474
0.17552
0.175166
0.175008
0.175086
0.17552
0.174507
0.174133
0.174507
0.17552
0.175086
0.175008
0.175166
0.17552
0.175474
0.175451
0.175471
0.17552
0.175466
0.175448
0.175465
0.17552
0.17546
0.175439
0.175459
0.17552
0.175453
0.17543
0.175452
0.17552
0.175446
0.17542
0.175445
0.17552
0.175439
0.175411
0.175438
0.17552
0.175433
0.175403
0.175438
0.17552
0.17551
0.17552
-5.44728
0.175517
-1.33404
0.175516
0.175517
-0.424074
0.175516
0.175517
-4.29792
0.175516
0.175517
-3.0252
0.175516
0.175517
-2.42577
0.175516
0.175517
0.175517
-1.41434
0.175517
0.175521
0.175516
0.175517
-4.56092
-5.35187
0.175516
-7.65578
-4.69479
0.17552
0.175516
-5.12481
0.175516
-0.469907
0.17552
-7.56485
0.175516
0.175517
-0.770749
0.175516
-0.782172
-1.56027
0.17552
0.175515
-3.02126
0.175521
-2.91157
0.175515
-3.39902
-7.12202
0.17552
0.175515
-0.413579
-8.45659
0.17552
-2.32149
0.175516
0.175518
0.175515
-3.12896
-2.16499
0.175516
0.175516
-2.93693
0.17552
0.175515
0.175516
0.175516
0.175521
-1.7233
0.175515
-1.43968
-0.345993
0.17552
0.175515
-3.01597
0.175521
0.175515
-0.511117
-2.86178
-0.521932
0.17552
0.175515
0.175516
-3.23672
0.175515
0.175516
0.175516
-1.83167
0.175516
-0.869127
-1.82686
0.17552
0.175515
-0.542582
0.175521
0.175515
-0.891825
0.175521
-0.627219
0.175515
-0.329616
0.175521
-0.4833
0.175515
-8.35875
0.175519
0.17552
-2.92535
0.17552
-1.839
0.17552
-1.95155
0.17552
0.17552
-2.05963
0.17552
-0.270854
0.17552
-8.35873
0.17552
-1.54482
0.17552
-3.84552
0.17552
-1.9595
0.17552
-0.0438722
0.17552
-8.18244
0.17552
-0.854737
0.17552
-0.875917
0.17552
0.157084
0.17552
-3.08967
0.17552
-1.63907
0.17552
-2.76498
0.17552
0.175519
-6.73574
-0.232905
0.17552
-4.10144
0.17552
0.17552
-3.20067
0.17552
-1.12617
0.17552
-5.74409
0.148571
0.17552
-2.77044
0.17552
-1.88501
0.17552
0.175521
-1.76086
-0.872739
0.17552
-0.412182
0.17552
-5.18218
0.17552
-2.13623
-2.65289
0.17552
-2.64174
-2.51128
0.17552
-4.62117
-0.837502
0.17552
-1.20286
0.17552
-4.72924
-5.01944
0.17552
-2.04988
0.17552
-2.29162
-6.43627
0.17552
-4.56477
-6.92312
0.17552
-2.93375
0.17552
0.163737
0.17552
-0.965474
-2.50549
0.17552
-1.18997
-1.85865
-5.62085
-2.83277
-2.65054
-5.16477
-0.79279
-0.455882
-0.880728
-1.87273
-0.436789
-3.231
-3.25599
-1.78439
-0.532307
-2.28634
-2.06516
-2.17318
0.153739
-4.69835
-1.05574
-4.4549
-6.30294
-2.65171
-0.577099
-7.32371
-7.73383
-3.89573
-0.156046
-3.24015
-1.73531
0.0448846
-6.93
-3.25332
-0.248729
-0.442635
-6.57866
-6.68729
-0.929346
-8.04507
-1.72372
-8.35996
-3.14177
-0.93622
-0.888921
-1.77562
-1.50832
-8.32453
-8.32649
-8.3132
-1.89225
-0.00308732
-0.399066
-0.655312
-1.83991
-8.38946
-0.890503
0.104872
-7.52707
-6.1639
-0.300223
-2.37442
-8.41575
-8.45564
-8.50255
-7.82812
-0.830305
-4.76018
-0.526251
-0.275695
-2.42227
-1.10102
0.153023
-1.01442
-1.10453
-2.48533
-0.598221
-0.69593
-5.94483
-0.956091
-1.24342
-3.03335
-1.9643
-2.74306
-0.98621
-1.41398
-2.06084
-1.77665
-1.06097
-1.80409
-1.09537
-2.75451
-2.80618
-4.60293
-3.76577
-0.310081
-2.18057
-1.77519
-2.37024
-1.79372
-0.389862
-0.606177
-2.87454
-2.37335
-2.65054
0.16904
-2.28342
-2.32024
-2.47881
0.0880725
-5.10404
-2.83277
-0.622223
-0.190226
-0.474431
-2.22626
-4.54467
-2.87454
-2.33786
-2.32587
-2.33786
-6.32395
-2.43453
-2.51659
-2.61869
-2.73871
-4.09157
-5.51136
-2.87713
0.130656
-5.08687
-1.0533
-7.35995
-3.99244
-3.89755
-0.716021
-0.846057
-2.60938
-3.86982
-4.79484
-1.84344
-3.35428
-0.717779
-1.07013
-5.36294
-2.8104
-1.11226
-1.68374
-0.843243
-7.50185
0.133363
-2.64249
0.0400225
-1.73726
-2.40345
-6.90063
-5.16543
-0.434785
-4.67825
0.113141
-1.16635
-4.63103
0.138407
-3.98949
-0.599149
-3.42765
-5.94053
-7.72907
-1.15307
-0.716227
-0.297092
-3.70271
-1.57471
-0.95653
-1.73436
-2.59947
-0.773323
-5.03669
-3.20366
-2.82815
-5.23116
-5.38375
-0.968433
-2.27354
-0.272645
-0.864045
-5.08973
-1.91363
-3.43876
-0.0423173
-0.370234
-1.02894
-5.13474
-5.26136
-5.32886
-5.15713
0.105179
-4.15205
-1.62887
-0.610663
-1.76588
-2.97266
-2.96727
-3.17923
-1.63386
-1.38725
-0.614116
-4.52006
-0.295902
-3.17656
-2.95837
-4.79229
-2.94176
-3.06093
0.0777068
-3.19881
-1.96761
-3.00865
-5.0975
-4.87996
-2.99859
-1.82516
-0.117859
-4.59093
-4.89635
0.125764
0.0643661
-3.49572
-3.15963
0.0496438
-0.139628
-3.6446
-2.37291
-2.99572
-2.81769
-0.865026
-0.216274
-6.71956
0.107845
-1.85319
-0.705534
-0.595771
-1.15283
-6.66504
-1.00208
-2.80278
-4.43125
-2.68732
-5.79725
0.160676
-3.38264
-4.90531
-4.15398
-2.71901
-1.4724
-0.44271
-1.48186
-1.41612
-4.94472
-2.37362
-0.231399
-0.488336
-7.72537
-3.99743
-3.71025
-2.6393
-4.79106
-1.02344
-4.44325
-2.93195
0.105869
0.157725
-4.5637
-4.49507
-2.87977
0.124603
-4.76309
-2.74176
-2.27809
-4.83896
-4.98398
-7.18823
0.109166
-4.76988
-5.07901
-2.60827
-4.73146
-2.76416
0.0916171
-2.77152
-0.726283
-1.55473
-0.266164
-2.51582
-0.99411
-3.80838
-0.587832
-8.29331
0.135312
-0.809734
-2.18219
-3.23317
-0.34337
-2.10157
0.162259
-2.80993
-0.536483
-1.31429
-2.66989
-1.90491
-1.7304
0.173162
-0.160899
-5.49871
0.0458162
-3.44701
-2.27158
-3.1632
-2.77765
-0.919527
-0.30192
-1.72814
-0.983083
-0.404194
-1.18252
-1.32451
-3.55731
-0.325228
0.100121
-1.50043
-0.953914
0.147833
-1.64649
-0.911558
-2.84751
-0.487744
-0.624031
-1.25698
0.100996
-4.76174
-8.09186
-0.218553
-2.46729
-7.58094
-4.42411
-1.51571
-0.691065
-1.32255
-1.95535
0.101039
-1.14917
-2.06127
-7.51268
-0.439302
-7.9682
-4.57353
-7.79728
-3.47254
-2.03669
0.133013
-8.0034
-1.51025
-1.13945
-7.75162
-4.29929
-8.0818
-0.653772
-3.32752
-1.36922
-3.13393
-1.20348
-7.96675
-0.134942
-0.226624
-0.342287
-0.168089
-6.32351
0.0868917
-2.1936
0.138752
-1.40358
-3.06826
-4.97458
-1.01746
-3.52183
-6.89484
-3.40362
-8.23353
-5.0011
-8.25023
-2.25085
-2.36277
-5.12032
-0.133171
-0.0733267
-4.29617
-0.135787
-3.00672
-3.21211
-0.244246
-1.4348
-3.93357
-1.65158
-0.0275382
-0.883967
-3.33414
-2.45289
-0.742041
-1.04249
-1.21672
-1.5792
-0.641978
-5.20591
0.0492527
-2.39843
-1.55791
-3.06025
-3.50184
-2.17853
-1.29816
-1.63655
-0.502063
-0.368347
-3.54004
-2.37855
-3.12949
-0.175982
-0.66333
-1.34809
0.14326
-5.05561
-1.11159
-0.0543447
-0.256851
-4.20863
-0.709787
-1.70256
0.160838
-6.56686
-6.04757
-1.90712
-0.959905
-2.69186
-0.222345
-0.351325
-2.17837
-2.00816
-0.747388
-1.84952
-5.18112
-0.501644
-1.58617
0.115943
-4.91174
-3.21004
-5.07003
-0.20251
-0.203742
-1.37843
0.146488
-0.164162
-1.51909
0.0495333
-0.577653
-1.9548
0.114261
-4.94859
-2.95751
-5.05368
-3.1271
-0.881273
-4.86407
-0.335684
-6.24573
-3.54475
-1.40272
-3.16447
-0.848917
-1.33439
-6.51355
-1.99926
-0.954213
-2.90118
-0.559505
-0.202634
0.135105
-0.461003
-2.59427
-2.28351
-1.99299
-1.83596
-2.19153
0.111897
-2.25008
-5.91476
-1.10507
-0.867786
-0.687674
-1.45213
0.0507635
-3.77676
-2.45598
-3.10926
-0.971834
-3.23808
-1.25933
-0.658506
-1.79649
-6.17102
-1.65019
-1.81828
-3.23998
-0.991955
-0.44065
-0.32013
-1.3048
-1.79003
-4.58468
-4.36456
-5.35504
-3.9239
-2.75366
-3.53518
-3.53824
-0.369626
-1.86305
-1.95588
-5.75147
-2.81697
-1.12222
-2.33717
-3.43093
-2.07931
-0.911642
-0.122949
-2.78387
-1.29505
-3.22063
-0.834657
-0.53637
-3.1172
-0.318094
-2.55854
-1.17918
-1.31226
-2.00634
-2.91067
-0.631944
0.0783657
-0.651555
-2.635
-2.65691
-3.32515
0.144232
-0.878362
-2.38713
-0.510502
0.158234
-0.105168
-0.384082
-2.14955
-2.07513
-0.281444
-0.694946
0.136626
0.166777
-0.969349
-3.71836
0.0222066
-2.41582
-1.44243
-1.42701
-0.21118
-2.3035
-0.77398
-1.1713
-0.317834
-0.938808
-1.47185
-1.7016
-0.557229
-2.3254
-3.20048
-5.64165
-0.411544
-0.32388
-0.283742
-0.942239
-0.387224
-0.310028
-5.80208
0.0890138
-0.500777
-4.23455
-0.489555
-1.93305
-2.01966
0.0358421
-3.47176
-0.689375
-1.13576
-0.831526
-0.0649782
-0.299506
-0.0833717
-0.821184
-4.34465
-0.358997
-2.10856
-2.71247
-0.771785
-0.251817
-5.11209
-2.30649
-2.25337
-0.520396
0.0211753
-0.708332
-3.90178
0.066214
-7.0166
-0.709097
-1.31631
-4.03395
-0.0735965
-2.06315
-0.672583
-0.360433
-0.816
-1.01936
-0.541341
-2.00782
-2.18911
-0.726697
0.161255
-3.01182
-1.69405
-0.337464
-1.95768
0.135219
-1.14542
-1.18965
-0.457172
-1.50069
0.166411
-5.56978
-0.228011
-3.8042
-0.71251
-5.34493
-0.752533
-6.00008
-6.05153
-0.6305
-3.17093
-2.07981
-1.37192
-6.56151
-0.939055
-6.78074
-0.526075
-1.07727
-2.61175
-0.546792
-7.16504
-0.897302
-3.48044
-5.2074
-1.99413
-5.25013
-0.728407
-0.343601
-0.649864
-6.65508
-1.21127
-0.35881
-0.766442
-0.691086
-0.757993
-0.737022
-0.57432
-0.96073
-4.92911
-4.88354
-0.453808
-1.94424
-5.66515
0.149372
-6.24151
-4.26637
-0.231055
-1.54513
-0.417067
-0.779897
-0.828271
-1.29016
-3.37731
-2.82841
-1.37502
-1.78847
-0.999844
-0.525336
-0.599512
-6.25179
-4.02119
0.0908373
-3.88567
0.100525
-7.6735
-3.31908
-0.567728
-6.8885
-3.47636
0.14036
-4.32352
-0.532219
-1.77668
-3.06226
-0.92171
-1.1059
-0.39557
-0.725482
-1.70794
-7.52922
-0.771191
-1.39074
-0.865528
-0.796366
-0.731574
-0.298267
-2.08675
-5.44741
-3.60307
-3.8829
-3.91785
-1.52585
0.126259
-0.575773
-2.92035
-0.101973
-6.31123
0.053793
-5.00778
-1.08343
-0.560151
-3.82251
-3.35715
0.0887284
0.143437
-0.986489
-6.53149
-6.11327
-5.35782
-0.48719
-0.671066
-0.898805
-0.859173
-6.54042
-0.693614
-3.65675
-7.52843
-0.812551
-0.454534
-1.11022
-1.30601
-2.90198
-7.3203
-0.623837
-4.62406
-1.78015
-3.67363
-5.36057
-1.31564
0.12768
-7.78062
-7.39873
-2.09878
-7.3993
0.165083
0.158265
-2.23124
-2.04855
-0.568241
-3.02182
-0.647842
-7.62015
-8.01333
-0.230514
-0.523767
-4.46836
-5.9804
-4.34187
-2.31019
-8.22878
-7.72333
-0.725153
0.171252
-0.461667
-0.341495
-0.93216
-0.4765
-0.385485
-7.92087
-7.55027
-0.650494
-2.0908
-2.49222
-1.55744
-0.525273
-1.85161
-0.391585
-0.854857
-7.83369
-3.30454
-6.26268
0.145362
-3.08395
-0.547146
-2.31735
-7.24552
-4.07256
-0.218933
-4.49131
-1.94888
-2.99204
-4.64429
-8.10532
-0.678295
0.0866553
-7.86242
-3.81419
-7.916
-0.201866
-5.596
-0.322321
-3.12541
-1.09708
-0.829062
-1.89761
-1.49597
-2.62401
-4.88232
-5.64088
-4.07178
-0.744874
-2.99536
-3.99349
-5.14446
0.139645
-0.682925
-4.01193
-7.18859
-5.78835
-6.42205
-1.19114
-3.08769
0.116508
-7.13733
-2.22068
-1.31572
-0.576882
0.142432
-1.20873
-3.78158
-0.398593
-8.13492
-0.737519
-2.99081
-0.857847
-8.06998
0.163445
-2.18444
-3.17211
-1.50225
0.169531
-7.03972
-0.285751
-0.830583
-3.00481
-7.94222
-0.69198
-0.0226504
-0.341129
-0.583469
0.0968065
-0.279113
-0.275969
-0.633022
-1.82067
-3.31518
-6.59426
-0.217752
-1.97232
-4.60424
-2.63949
-2.01316
-3.38613
0.151517
-2.17558
0.166538
-3.01687
-1.31058
-2.00029
-2.25101
-2.95844
-2.87393
-3.01649
-0.605725
0.14648
-0.364096
-3.28104
-2.46084
-0.54426
-0.810183
-2.60093
-0.926688
-5.11049
-0.292749
-0.743837
0.131711
0.0287886
-1.11427
-4.00887
-0.467953
-0.494977
-6.39862
-3.79858
-2.23412
-1.90734
-0.660819
-0.812268
0.164978
-1.19314
-4.83648
-0.952613
-0.690321
-0.825489
-4.68554
-1.8882
0.16895
-0.450695
0.0739845
-2.2157
-0.581668
-4.63478
-2.84049
-4.87459
-5.47778
-6.45105
-4.92282
-2.08626
-4.16948
-4.06188
0.0912113
-0.650823
-1.35079
-7.96739
-0.359396
-4.46563
-5.31096
-2.09973
-0.385534
-2.47967
-3.98428
-6.85481
-2.84782
-2.58017
-0.792592
-4.314
-6.31099
-2.40093
-6.26051
-0.576782
-4.03918
-5.51162
-1.64957
-4.319
-6.74397
-3.58373
-2.8959
-6.41405
0.0337896
0.170145
-0.305636
-3.6257
-1.49482
-2.75177
-1.8342
-4.34423
-8.11296
-8.05133
-8.13696
-7.64775
-6.29486
-6.50406
-0.625106
-6.08356
-6.84027
0.12243
-3.70068
-2.47028
-0.93338
-0.286152
-4.48302
-1.67727
-0.65793
-6.46797
-0.55812
-2.2204
-0.208409
-2.4938
-1.5084
-4.6799
-4.31983
-4.12669
-2.03468
-2.39403
-2.96742
-2.40073
0.1565
0.161434
-4.70651
-0.110054
-1.63553
-1.24016
-2.5703
-5.88432
-0.196094
-3.3664
-4.29187
-5.78254
0.169729
-1.25659
-0.974038
-1.56665
-0.829999
-4.95832
-4.2571
-6.85373
-0.518396
-5.01275
-4.19225
-0.360558
-4.87482
-3.13031
-1.25937
-2.64973
0.170153
-3.31047
-0.753448
0.0973055
-1.44428
-0.536535
-1.11051
-6.05693
-2.12029
-2.29701
-3.8998
-1.03137
-4.43686
-3.48612
-1.44794
-0.412258
-1.08116
-1.52482
0.122929
-0.473576
0.173024
-4.42387
-0.406577
-2.86051
-0.309274
-1.17672
-3.72824
-3.53746
-1.05941
-4.73468
-6.17582
-6.76403
-1.06973
-6.60462
-0.471485
-0.699805
0.155676
-0.501802
-1.00249
-1.06173
-0.616664
-0.716061
-4.57778
-6.95755
-0.702075
-3.76037
-6.58891
-5.64095
-0.528448
-0.269019
-2.14224
-4.51667
-4.1198
0.160781
-4.83853
-3.79017
-1.2217
-3.49724
0.164133
-0.619041
-2.56811
-0.85441
0.00104485
-2.49288
0.173605
-0.496581
0.138002
-1.13473
-2.90701
-6.26209
-5.62775
-3.4496
-1.19898
0.0237378
-2.56407
-0.0230815
-4.71362
-7.32858
-5.73507
-3.83916
-5.817
-3.647
-5.74122
-1.22302
0.175523
-0.921412
-5.6635
-1.13478
-4.36356
-1.67738
-4.62152
-5.51174
-1.25615
-7.58848
-2.72039
-2.78861
-0.124173
-0.503879
-0.556779
-0.83223
-1.21042
-7.33557
-0.447224
-0.369426
-4.41344
-0.487969
-0.511333
0.0951428
-6.23406
-1.08349
0.172156
0.172522
-5.49195
-1.00857
-6.94539
-2.64529
-2.68021
-0.731079
-0.714469
-7.53624
-2.73949
-0.638812
-7.00692
-0.3417
0.163569
-5.84715
-0.929782
-0.596396
-0.445844
-5.77933
-3.0148
-5.26536
-5.19707
-5.06756
-6.02985
-0.398116
-1.13129
-5.33809
-4.02619
-0.0335076
-2.32052
0.170991
-3.93886
-5.74194
0.169226
-1.69602
-5.04169
-5.89516
-0.438991
-3.75733
-6.62423
-0.986514
-6.76061
-5.43401
-5.9412
-5.9939
-6.12957
-6.14156
-0.975254
-2.49196
-2.35519
-3.62442
-3.9145
-5.9483
-0.976962
-6.22077
-6.2187
-6.01158
-5.97609
-1.22782
-3.28689
-4.1051
-6.11794
-0.708935
-0.521023
-6.47572
-6.42738
-6.55618
-6.05884
-6.2704
-6.56356
-0.725016
-6.45111
-6.3599
-6.59563
-0.651112
-6.32305
-3.28739
-5.66447
-5.16279
-2.55612
-0.673568
-5.36501
-0.73694
-3.94669
-5.31153
0.174565
-2.53823
-0.632917
-0.641727
-3.52719
-3.1947
-0.877804
-3.39072
-6.49694
0.17355
-1.62341
-1.25744
-5.46055
-8.08707
-3.55132
-2.28805
-5.41523
-3.38119
-2.63251
-8.1454
-1.0448
-6.4287
-8.17918
-7.68978
-1.1885
-7.97205
-2.70904
-4.71547
-2.96732
-0.999221
-4.47095
-2.55833
-3.00064
0.00798569
-2.49452
-0.393341
-1.58571
-1.11364
-1.73691
-0.873192
-1.12121
-0.604318
-0.299383
-0.996321
-2.86939
-2.32822
-2.45057
-2.90123
-0.653912
-2.77656
-3.31075
-0.881207
-5.58094
-1.31762
-0.599666
-0.521068
0.173531
-0.883941
-1.22694
-3.48464
-0.979999
-6.54637
-3.56536
-2.76022
-2.79865
-1.70275
-2.17185
-0.827846
-1.87818
-0.411442
-2.33327
-6.53245
0.124409
-0.523218
-1.91946
-1.19748
-2.09185
-2.96683
-1.06416
0.00245703
-3.18509
-0.969125
0.0660865
-3.45421
-5.2633
-0.997952
-0.686675
-5.89497
-1.60481
-5.62575
-0.390638
-0.868199
-0.925504
-0.400175
0.164028
-5.00633
-1.28797
-3.89272
0.15562
0.163858
-1.48936
-1.01207
-0.880934
-6.48311
-0.797948
-4.29096
-0.783236
-7.21123
-0.564664
-0.961848
-2.00804
-0.947493
-2.44672
-1.35649
-1.26086
-2.94437
-0.642758
-1.03502
-5.19877
0.0121836
-1.33675
-0.132268
-3.30465
-1.81759
-4.85076
-4.87034
-2.12798
-6.36314
-6.43859
-4.80654
-4.19287
-2.66915
-0.787333
0.152464
-0.634853
-5.46659
-1.3151
-1.02329
-1.36885
0.0475654
-1.92102
-3.64486
-2.1402
-5.4648
-0.67819
-1.28801
-2.1761
-0.887799
-0.642708
-0.313855
-0.546438
-5.27943
-0.767325
-5.37599
-0.545706
-0.805366
-0.585335
-1.21669
-0.479791
-0.671846
-2.74426
-0.816253
0.169374
-0.167887
0.156207
-1.02691
0.0560405
-3.16705
-2.19931
0.159271
-0.836175
-2.26072
0.129464
-1.05915
-0.0589835
-5.35467
-0.631152
-0.670258
0.150906
-2.04497
-0.483497
-3.28323
-0.639744
-1.77877
-4.38767
0.156073
-0.989742
-5.85763
-1.53756
-1.85282
0.10034
-3.75692
-0.884041
-1.16618
0.149589
-2.28133
-0.97919
-0.850613
-5.82893
-1.38453
-1.08837
-4.77554
-1.07366
-0.276726
0.160663
-2.64467
-1.41751
-1.74339
0.170842
-0.437966
0.0334372
-5.12691
-5.23663
-3.60095
-1.73246
-6.98653
-0.972149
-5.18711
-0.687791
-0.58956
-4.75258
-1.45213
-0.774838
-0.644136
0.174125
-0.881536
-0.85542
-0.454237
-6.18728
-0.816505
-0.927968
-0.97106
-0.169019
-0.74296
0.0920322
-0.888696
-4.08467
-2.55408
-1.11206
-0.605541
-0.567271
-2.77145
-6.52563
0.161165
-2.47692
-1.18216
0.110033
-1.03318
-0.0120466
-1.12216
-1.93106
-3.54577
-0.182104
-1.17859
0.0754427
0.0594905
-1.21322
0.165174
0.167443
-0.715559
-0.779574
-1.0058
-0.822784
-0.595885
-3.28891
-0.739919
-0.0134812
-5.8868
-1.60939
-7.16083
-2.19205
-0.0406904
-6.78563
-0.0229428
-7.32424
-5.701
-0.632062
-0.96324
0.163624
0.0960405
-0.995469
0.128186
-0.34624
-6.68403
-1.08216
-1.26775
-7.08997
-1.03382
-1.93456
0.15733
-0.860946
-0.00734634
-5.12749
0.174499
-2.40919
-0.437507
-0.574193
-7.48152
-4.45153
-2.09462
-5.78254
-1.43411
-2.4143
-0.679791
-2.13066
-2.50015
-4.09177
-0.0932755
-0.181202
-2.24334
-1.22976
0.0242769
-0.0442364
-3.39407
-6.56451
-7.33713
-2.62579
0.0720643
0.0491169
-1.95519
-1.13542
-5.16296
-0.00136306
0.168482
-1.97642
-0.683059
-3.0564
-5.56634
-0.00592999
-3.97026
0.10655
0.0872667
-7.09553
-1.40505
-1.4435
-7.95392
-1.98921
-5.65045
-0.0401543
-7.75923
-7.0315
-0.0391274
-1.12653
0.155633
-1.06251
-0.229069
-1.34671
-1.50284
0.107588
-3.72304
-1.30389
-0.466462
0.0134755
-1.51742
-7.87936
0.0310029
-5.78568
-4.2392
-5.86215
-1.27222
-0.344866
-5.44526
-0.742221
0.174635
-2.40755
-6.11768
-6.44949
-1.24378
-0.712177
-1.25675
-1.72876
-5.39737
-0.502832
-8.05775
-0.857564
-1.7716
-1.55789
-1.0128
0.044006
-1.50564
-1.07718
-0.948729
-0.511091
-0.784688
-0.98874
-0.192436
-0.792779
-0.294384
-0.942356
-4.3862
-1.49195
-4.40774
-1.64252
-1.62888
0.100453
-1.86195
-0.606598
-0.504445
-1.24263
-0.0752087
-1.26425
-1.30421
-0.624207
-7.83914
-1.32603
-2.36873
0.127304
-0.988696
-7.95164
-0.650967
-2.85438
-3.86784
-2.56358
-0.00617863
-0.404733
-1.50471
-2.01501
-0.868255
-2.91278
-0.432123
-1.08564
-0.567235
0.00955736
-2.44965
-4.48683
-4.49497
-4.46144
-1.26315
-4.04863
-3.98024
-6.96206
-0.0466284
-0.0157274
-1.2223
-0.525354
-1.40724
0.0561385
-4.06788
-2.25529
-1.42295
-0.876578
-5.8639
-2.57831
-2.50739
-0.260991
-0.730464
-1.17721
-1.4355
0.165775
-3.41901
-5.37927
-1.49394
-4.27745
-0.24967
-1.39113