<VTKFile type="UnstructuredGrid" version="0.1" byte_order="LittleEndian">
  <UnstructuredGrid>
    <Piece NumberOfPoints="8650" NumberOfCells="16829">
      <Points>
        <DataArray type = "Float64" NumberOfComponents="3" format="ascii">
3.5 2.00105 0.0 
3.5 1.99895 0.0 
0 0 0.0 
12 0 0.0 
0 4 0.0 
12 4 0.0 
4.30052 2.91307 0.0 
3.25494 2.03688 0.0 
3.27089 1.94191 0.0 
2.3504 1.2816 0.0 
3.46822 2.00422 0.0 
3.4492 2.00609 0.0 
9.75011 0.429191 0.0 
4.04015 2.1502 0.0 
3.4284 2.00811 0.0 
6.5733 0.582688 0.0 
3.40943 2.00992 0.0 
4.29545 2.8495 0.0 
3.39055 2.01171 0.0 
10.5646 0.785159 0.0 
3.37064 2.01358 0.0 
1.73557 1.15488 0.0 
3.37374 2.27123 0.0 
1.98766 0.466428 0.0 
3.3441 2.01602 0.0 
7.08858 0.630153 0.0 
3.32932 2.01737 0.0 
3.31416 2.01873 0.0 
2.24381 1.09109 0.0 
3.30101 2.01991 0.0 
2.8263 1.93104 0.0 
5.05599 2.06888 0.0 
3.28104 2.02167 0.0 
11.443 2.87979 0.0 
3.26112 2.02341 0.0 
7.27082 2.03327 0.0 
4.89223 2.24166 0.0 
8.08907 3.88547 0.0 
3.23123 2.02597 0.0 
6.49446 2.23798 0.0 
8.28155 1.27045 0.0 
3.21131 2.02765 0.0 
3.20135 2.02848 0.0 
3.18889 2.02951 0.0 
3.17635 2.03053 0.0 
0.759789 2.22952 0.0 
1.92819 1.35187 0.0 
3.16034 2.03183 0.0 
3.15052 2.03262 0.0 
0.628639 2.20506 0.0 
2.48462 2.13876 0.0 
3.13957 2.03349 0.0 
7.00262 2.02534 0.0 
3.1296 2.03426 0.0 
3.43651 1.96462 0.0 
3.12171 2.03487 0.0 
1.91758 0.868618 0.0 
3.11166 2.03562 0.0 
1.82678 2.40792 0.0 
3.10169 2.03635 0.0 
9.07246 3.48736 0.0 
3.0922 2.03704 0.0 
9.87757 2.91797 0.0 
3.08224 2.03774 0.0 
6.05081 2.99563 0.0 
3.07177 2.03847 0.0 
3.05986 2.03927 0.0 
3.04983 2.03993 0.0 
4.48654 2.70185 0.0 
3.03985 2.04058 0.0 
4.30691 0 0.0 
3.02987 2.04121 0.0 
8.66013 2.72876 0.0 
3.0199 2.04182 0.0 
3.00992 2.04242 0.0 
3.11948 1.89192 0.0 
3.00193 2.04289 0.0 
5.02169 1.95117 0.0 
6.92709 2.09023 0.0 
2.98711 2.04373 0.0 
5.35602 3.41786 0.0 
2.97747 2.04427 0.0 
8.24797 3.03812 0.0 
2.96958 2.04469 0.0 
3.47062 0 0.0 
2.96201 2.04509 0.0 
8.08727 1.03907 0.0 
2.95043 2.04569 0.0 
9.9963 2.9126 0.0 
2.94005 2.0462 0.0 
2.93089 2.04665 0.0 
5.38356 1.70554 0.0 
5.10951 2.0705 0.0 
2.92007 2.04715 0.0 
9.25464 2.64568 0.0 
2.91208 2.04752 0.0 
4.90901 0.0899404 0.0 
10.8572 2.96282 0.0 
2.8996 2.04807 0.0 
2.8946 2.04828 0.0 
8.13323 0.520161 0.0 
2.88961 2.04847 0.0 
7.53636 2.98545 0.0 
2.88461 2.04866 0.0 
2.88003 2.04882 0.0 
4.36669 2.87466 0.0 
5.48324 3.20336 0.0 
2.87462 2.04899 0.0 
8.13877 0.9569 0.0 
2.86962 2.04914 0.0 
6.52954 2.17864 0.0 
2.9079 2.10075 0.0 
2.85755 2.04945 0.0 
2.86213 2.04934 0.0 
3.57573 2.26576 0.0 
11.0785 1.20913 0.0 
2.85213 2.04957 0.0 
6.34553 0.8579 0.0 
2.84714 2.04967 0.0 
2.71383 2.05692 0.0 
2.84214 2.04975 0.0 
2.83714 2.04983 0.0 
8.44819 2.97194 0.0 
2.7008 2.0473 0.0 
2.83214 2.04989 0.0 
2.82714 2.04994 0.0 
3.66351 2.90587 0.0 
2.81965 2.04999 0.0 
2.82215 2.04997 0.0 
8.77941 1.06272 0.0 
6.22667 2.35768 0.0 
2.81215 2.05001 0.0 
2.80472 2.05001 0.0 
2.79507 2.04997 0.0 
2.79965 2.05 0.0 
5.55584 1.18487 0.0 
2.23848 1.67373 0.0 
2.78966 2.04993 0.0 
12 0.988649 0.0 
2.78466 2.04988 0.0 
9.45522 2.67434 0.0 
2.77966 2.04982 0.0 
7.88728 1.90278 0.0 
2.77466 2.04975 0.0 
1.66486 2.79812 0.0 
2.77216 2.04971 0.0 
2.76716 2.04961 0.0 
2.76467 2.04956 0.0 
8.49528 2.50007 0.0 
2.75967 2.04946 0.0 
2.75467 2.04934 0.0 
3.94216 1.77185 0.0 
2.74967 2.0492 0.0 
6.21834 1.68371 0.0 
2.74468 2.04906 0.0 
9.51856 2.75585 0.0 
2.73968 2.04891 0.0 
2.73469 2.04874 0.0 
9.41426 2.76593 0.0 
2.73219 2.04865 0.0 
2.72719 2.04847 0.0 
2.72261 2.04829 0.0 
1.98758 0.894932 0.0 
5.00775 1.52929 0.0 
2.7172 2.04806 0.0 
8.83747 2.67733 0.0 
6.45849 0.568625 0.0 
2.71221 2.04785 0.0 
3.38059 3.04212 0.0 
2.70472 2.0475 0.0 
2.67763 2.04605 0.0 
2.69045 2.04677 0.0 
2.69475 2.047 0.0 
6.62286 2.79864 0.0 
1.82149 2.99888 0.0 
2.68477 2.04646 0.0 
4.79305 1.92641 0.0 
3.01223 0.893764 0.0 
2.67479 2.04588 0.0 
9.04251 2.70224 0.0 
2.66978 2.04558 0.0 
2.6648 2.04526 0.0 
9.48102 3.02398 0.0 
2.65981 2.04494 0.0 
8.79605 3.01706 0.0 
2.65482 2.04461 0.0 
3.76169 1.38241 0.0 
2.64741 2.04409 0.0 
8.98557 2.77888 0.0 
7.99404 0.835602 0.0 
2.63986 2.04355 0.0 
9.20317 0.75112 0.0 
2.63239 2.04298 0.0 
8.27174 0.700244 0.0 
2.62498 2.0424 0.0 
8.23459 1.16471 0.0 
2.62242 2.0422 0.0 
8.44244 0.812526 0.0 
2.61495 2.04158 0.0 
9.08968 2.78231 0.0 
2.60755 2.04095 0.0 
9.42671 3.11439 0.0 
12 0.741789 0.0 
2.60001 2.04028 0.0 
6.67584 2.2739 0.0 
2.58798 2.03916 0.0 
2.59254 2.03959 0.0 
4.90695 3.20594 0.0 
1.76947 1.03015 0.0 
8.97315 2.9414 0.0 
2.58259 2.03864 0.0 
9.42058 2.93769 0.0 
3.23743 2.71347 0.0 
2.57513 2.0379 0.0 
2.57264 2.03764 0.0 
2.57016 2.03735 0.0 
2.56768 2.03702 0.0 
2.56522 2.03662 0.0 
2.56276 2.03616 0.0 
2.56031 2.03565 0.0 
2.55788 2.03508 0.0 
2.55546 2.03446 0.0 
2.55305 2.03379 0.0 
2.55066 2.03307 0.0 
2.54828 2.0323 0.0 
2.54592 2.03148 0.0 
2.54357 2.03062 0.0 
2.54124 2.02971 0.0 
2.53893 2.02876 0.0 
2.53664 2.02777 0.0 
2.53436 2.02674 0.0 
2.5321 2.02567 0.0 
2.52986 2.02456 0.0 
2.52764 2.02342 0.0 
2.52544 2.02224 0.0 
2.52325 2.02103 0.0 
2.52108 2.01978 0.0 
2.51893 2.01851 0.0 
2.5168 2.0172 0.0 
2.51469 2.01587 0.0 
2.51259 2.01451 0.0 
2.51052 2.01312 0.0 
2.50845 2.0117 0.0 
2.50644 2.01022 0.0 
2.50456 2.00858 0.0 
2.50283 2.00678 0.0 
2.50139 2.00474 0.0 
2.50037 2.00246 0.0 
2.5 2 0.0 
2.50037 1.99754 0.0 
2.50139 1.99526 0.0 
2.50283 1.99322 0.0 
2.50456 1.99142 0.0 
2.50644 1.98978 0.0 
2.50845 1.9883 0.0 
2.51052 1.98688 0.0 
2.51259 1.98549 0.0 
2.51469 1.98413 0.0 
2.5168 1.9828 0.0 
2.51893 1.98149 0.0 
2.52108 1.98022 0.0 
2.52325 1.97897 0.0 
2.52544 1.97776 0.0 
2.52764 1.97658 0.0 
2.52986 1.97544 0.0 
2.5321 1.97433 0.0 
2.53436 1.97326 0.0 
2.53664 1.97223 0.0 
2.53893 1.97124 0.0 
2.54124 1.97029 0.0 
2.54357 1.96938 0.0 
2.54592 1.96852 0.0 
2.54828 1.9677 0.0 
2.55066 1.96693 0.0 
2.55305 1.96621 0.0 
2.55546 1.96554 0.0 
2.55788 1.96492 0.0 
2.56031 1.96435 0.0 
2.56276 1.96384 0.0 
2.56522 1.96338 0.0 
2.56768 1.96298 0.0 
2.57016 1.96265 0.0 
2.57264 1.96236 0.0 
2.57513 1.9621 0.0 
2.58259 1.96136 0.0 
5.47366 2.96557 0.0 
2.58998 1.96065 0.0 
1.77889 3.10727 0.0 
2.59503 1.96018 0.0 
2.60001 1.95972 0.0 
4.98794 2.23525 0.0 
2.60499 1.95928 0.0 
2.60997 1.95884 0.0 
7.9704 1.8341 0.0 
2.61495 1.95842 0.0 
2.61993 1.95801 0.0 
6.67775 2.38383 0.0 
2.62491 1.9576 0.0 
2.62989 1.95721 0.0 
6.05757 2.47597 0.0 
2.63488 1.95683 0.0 
2.63986 1.95645 0.0 
2.64485 1.95609 0.0 
4.49088 0.755642 0.0 
2.64983 1.95574 0.0 
2.6623 1.9549 0.0 
2.65482 1.95539 0.0 
2.65981 1.95506 0.0 
8.17613 1.24546 0.0 
3.091 1.86941 0.0 
2.66729 1.95458 0.0 
11.2956 1.25205 0.0 
8.33045 1.37709 0.0 
2.67228 1.95427 0.0 
2.67727 1.95397 0.0 
5.72341 0.206214 0.0 
2.68475 1.95354 0.0 
1.85787 1.94567 0.0 
2.69217 1.95314 0.0 
11.1454 3.21 0.0 
2.69723 1.95288 0.0 
2.69973 1.95275 0.0 
12 0.247461 0.0 
2.70715 1.95239 0.0 
2.36877 1.39352 0.0 
5.22691 1.8236 0.0 
2.71221 1.95215 0.0 
2.7172 1.95194 0.0 
8.77818 2.48508 0.0 
2.7222 1.95173 0.0 
6.56426 2.37578 0.0 
2.72719 1.95153 0.0 
7.07431 1.95849 0.0 
10.5184 4 0.0 
2.73219 1.95135 0.0 
2.73718 1.95118 0.0 
2.5623 3.11106 0.0 
3.27995 0.972827 0.0 
2.74218 1.95102 0.0 
7.64897 4 0.0 
2.74967 1.9508 0.0 
2.76007 1.95054 0.0 
2.7571 1.9506 0.0 
6.7275 2.71017 0.0 
1.27321 0 0.0 
2.76467 1.95043 0.0 
2.76966 1.95034 0.0 
6.49308 3.1229 0.0 
2.77216 1.95029 0.0 
2.77716 1.95021 0.0 
2.77966 1.95018 0.0 
2.78466 1.95012 0.0 
2.79209 1.95005 0.0 
5.25203 2.73311 0.0 
2.79715 1.95001 0.0 
5.11022 1.87216 0.0 
2.61244 1.43557 0.0 
2.80215 1.94999 0.0 
2.80715 1.94998 0.0 
1.69839 2.21217 0.0 
2.81215 1.94999 0.0 
2.81715 1.95 0.0 
6.43218 0.112858 0.0 
6.537 2.04355 0.0 
4.06638 1.85813 0.0 
2.82215 1.95003 0.0 
2.82714 1.95006 0.0 
2.82964 1.95009 0.0 
6.69382 3.20227 0.0 
2.83707 1.95017 0.0 
2.84464 1.95029 0.0 
2.84964 1.95038 0.0 
12 0.49477 0.0 
2.85463 1.95048 0.0 
5.0497 3.14176 0.0 
5.32446 2.8262 0.0 
2.86213 1.95066 0.0 
2.86713 1.95079 0.0 
3.68249 0 0.0 
2.87212 1.95093 0.0 
2.87712 1.95109 0.0 
1.67901 2.47423 0.0 
2.88211 1.95125 0.0 
6.4646 3.18275 0.0 
2.88711 1.95143 0.0 
2.41588 2.51994 0.0 
2.8921 1.95162 0.0 
4.06213 1.65537 0.0 
2.8971 1.95183 0.0 
6.88515 3.77342 0.0 
2.90417 1.95213 0.0 
2.91208 1.95248 0.0 
4.54797 2.04024 0.0 
2.92207 1.95294 0.0 
6.60092 2.003 0.0 
2.93157 1.95339 0.0 
1.73985 0 0.0 
2.94154 1.95387 0.0 
2.95152 1.95437 0.0 
3.61933 3.15879 0.0 
2.96201 1.95491 0.0 
12 1.23515 0.0 
2.9715 1.95541 0.0 
3.53456 1.50358 0.0 
2.98147 1.95595 0.0 
0.966707 1.21788 0.0 
2.99145 1.95651 0.0 
6.3078 0.441391 0.0 
3.00193 1.95711 0.0 
7.52081 1.95258 0.0 
3.01143 1.95767 0.0 
3.75 4 0.0 
3.02139 1.95827 0.0 
12 2.76484 0.0 
3.03137 1.95889 0.0 
3.19769 0.937683 0.0 
3.04135 1.95952 0.0 
4.50003 4 0.0 
3.05132 1.96016 0.0 
4.50205 2.33668 0.0 
3.0618 1.96086 0.0 
6.67764 1.24793 0.0 
3.07177 1.96153 0.0 
0.769062 1.4551 0.0 
3.08126 1.96219 0.0 
11.6154 4 0.0 
3.09172 1.96293 0.0 
3.09837 1.96341 0.0 
10.1159 4 0.0 
2.51711 2.44227 0.0 
3.11166 1.96438 0.0 
4.25 4 0.0 
3.12114 1.96509 0.0 
3.1311 1.96585 0.0 
6.86748 2.2434 0.0 
3.14156 1.96667 0.0 
2.58912 2.05756 0.0 
3.15104 1.96742 0.0 
6.42908 2.27333 0.0 
1.78537 1.97842 0.0 
3.17146 1.96907 0.0 
6.44021 2.18497 0.0 
3.18336 1.97004 0.0 
1.7837 2.79208 0.0 
3.20135 1.97152 0.0 
3.22072 1.97314 0.0 
2.35275 2.702 0.0 
4.47384 1.13513 0.0 
3.23123 1.97403 0.0 
2.38071 2.59565 0.0 
3.24555 1.97525 0.0 
8.58402 0.30847 0.0 
3.26112 1.97659 0.0 
5.77845 1.60796 0.0 
12 1.48019 0.0 
3.28104 1.97833 0.0 
6.26446 2.5439 0.0 
4 4 0.0 
3.30038 1.98003 0.0 
8.26583 1.45566 0.0 
1.75066 0.809061 0.0 
3.31787 1.9816 0.0 
3.7007 2.08702 0.0 
3.33233 1.9829 0.0 
8.37767 1.48423 0.0 
8.68938 1.7583 0.0 
3.35073 1.98458 0.0 
1.50522 0 0.0 
3.37064 1.98642 0.0 
1.04781 0 0.0 
5.50084 4 0.0 
3.39055 1.98829 0.0 
8.22608 1.63221 0.0 
10.3114 4 0.0 
3.41483 1.99059 0.0 
6.59792 1.73349 0.0 
3.42937 1.99199 0.0 
[...]
<PointData>
  <DataArray type = "Float64" Name="BLMLevelSetLayer1" format="ascii">
0.189022
0.189022
-3.01067
-8.54286
-3.01067
-8.54286
-1.02449
0.176134
0.153627
-0.524953
0.189021
0.189023
-6.2552
-0.371339
0.189021
-3.19491
0.189022
-0.973997
0.189022
-6.97907
0.189022
-0.947613
-0.0678266
-1.41345
0.189021
-3.65174
0.189022
0.189022
-0.739017
0.189023
0.170003
-1.36844
0.189022
-7.80243
0.189022
-3.58193
-1.22385
-4.77189
0.189022
-2.8148
-4.64771
0.189022
0.189022
0.189021
0.189022
-1.56702
-0.672223
0.189022
0.189022
-1.69441
0.0664501
0.189021
-3.31368
0.189021
0.161098
0.189022
-1.07576
0.189022
-0.59689
0.189022
-5.57825
0.189022
-6.25412
0.189022
-2.54883
0.189022
0.189021
0.189021
-1.0211
0.189021
-1.96665
0.189021
-5.02217
0.189021
0.189021
0.116182
0.189022
-1.33342
-3.23923
0.18902
-2.14596
0.18902
-4.67089
0.18902
-1.79831
0.189022
-4.4976
0.189021
-6.37092
0.189021
0.189023
-1.71725
-1.42199
0.189021
-5.60161
0.189022
-2.18366
-7.23078
0.189018
0.189018
-4.67448
0.189018
-3.96564
0.189018
0.189019
-1.04157
-2.1302
0.189018
-4.56535
0.189018
-2.84572
0.136022
0.189017
0.189022
-0.0863066
-7.43051
0.189022
-2.87676
0.189016
0.180021
0.189022
0.189016
-4.85352
0.189022
0.189022
0.189016
-0.730451
0.189018
0.189022
-5.17276
-2.56087
0.189022
0.189018
0.189018
0.189017
-2.02214
-0.225512
0.189018
-8.37081
0.189018
-5.80414
0.189018
-4.19932
0.189018
-0.963896
0.189022
0.189016
0.189018
-4.83112
0.189017
0.189018
-0.308051
0.189018
-2.54754
0.189018
-5.87668
0.189017
0.189018
-5.77449
0.189022
0.189016
0.189022
-1.02001
-1.39018
0.189016
-5.19112
-3.09708
0.189022
-0.83622
0.189018
0.189019
0.18902
0.189018
-3.03408
-1.01365
0.189018
-1.10606
-0.873301
0.189018
-5.39767
0.189018
0.189018
-5.87885
0.189018
-5.20361
0.189018
-0.480759
0.189017
-5.35142
-4.45315
0.189018
-5.64906
0.189022
-4.75629
0.189018
-4.6185
0.189022
-4.89382
0.189018
-5.45499
0.189017
-5.84135
-8.40344
0.189018
-2.99852
0.189018
0.189022
-1.66335
-1.021
-5.36432
0.189022
-5.80519
-0.496625
0.189011
0.189021
0.188939
0.188905
0.188934
0.189021
0.188939
0.188913
0.18894
0.189022
0.188946
0.188922
0.188947
0.189022
0.188953
0.188932
0.188955
0.189022
0.18896
0.188941
0.188962
0.189022
0.188967
0.188949
0.188968
0.189021
0.188972
0.188952
0.188976
0.189022
0.188667
0.188509
0.188587
0.189021
0.188009
0.187635
0.188009
0.189021
0.188587
0.188509
0.188667
0.189022
0.188976
0.188952
0.188972
0.189021
0.188968
0.188949
0.188967
0.189022
0.188962
0.188941
0.18896
0.189022
0.188955
0.188932
0.188953
0.189022
0.188947
0.188922
0.188946
0.189022
0.18894
0.188913
0.188939
0.189021
0.188934
0.188905
0.188939
0.189021
0.189011
0.189022
-2.00771
0.189018
-1.12723
0.189018
0.189018
-1.31723
0.189018
0.189018
-4.28442
0.189018
0.189018
-3.0117
0.189018
0.189018
-2.41227
0.189018
0.189018
0.189018
-1.40084
0.189018
0.189022
0.189018
0.189018
-4.54742
0.0957838
0.189017
-7.64228
-4.68129
0.189022
0.189017
-2.66711
0.189018
-0.456405
0.189022
-7.55135
0.189017
0.189018
-8.48956
0.189017
-0.412586
-1.54677
0.189022
0.189016
-5.1113
0.189022
-2.89806
0.189016
-3.38552
-7.10852
0.189022
0.189016
-0.881308
-0.812755
0.189022
-4.41638
0.189018
0.189019
0.189016
-3.11546
-2.15149
0.189017
0.189018
-3.0074
0.189022
0.189016
0.189018
0.189017
0.189022
-1.70979
0.189016
-1.42618
-0.332491
0.189022
0.189016
-0.640333
0.189022
0.189017
-3.29738
-2.84828
-0.3946
0.189022
0.189016
0.189018
-3.22322
0.189016
0.189017
0.189018
-8.44304
0.189018
-1.73524
-1.81336
0.189022
0.189016
-1.81816
0.189022
0.189016
-0.757933
0.189022
-3.00242
0.189016
-0.316115
0.189022
-0.469798
0.189017
-3.63204
0.189021
0.189022
-0.859678
0.189022
-2.9119
0.189022
-1.93805
0.189022
0.189022
-0.974853
0.189022
-8.34523
0.189022
-0.30733
0.189022
-1.53132
0.189022
-3.02185
0.189022
-3.83205
0.189022
-1.8255
0.189022
-8.34523
0.189022
-0.841235
0.189022
-2.04612
0.189022
-0.867744
0.189022
-3.07617
0.189022
-1.62556
0.189022
-8.16894
0.189021
0.189021
-6.72224
-0.219403
0.189022
-1.946
0.189022
0.189022
-3.18717
0.189022
0.170812
0.189022
-2.75269
-0.527196
0.189022
-2.75694
0.189021
-0.875988
0.189022
0.189022
-0.508568
-1.11273
0.189022
-0.398681
0.189021
-5.16868
0.189022
-2.12273
-8.32679
0.189022
-2.62824
-1.87151
0.189022
-4.60767
-1.21263
0.189021
-0.0293192
0.189022
-4.71573
-5.00594
0.189022
-2.03638
0.189022
-2.27812
-2.63926
0.189022
-4.55127
-6.90962
0.189021
-2.92025
0.189022
0.177238
0.189021
-2.30755
-3.16722
0.189022
-0.8596
-1.84515
0.162324
-2.81927
-2.63704
-6.42242
-0.779289
-0.44238
-0.867227
-1.85923
-0.423288
-5.3792
-0.772434
-5.70308
-0.613006
-2.27284
-2.05166
-2.15968
-1.17644
-4.68485
-1.77089
-4.4414
-0.497819
-0.953342
-0.521629
-7.31021
-7.72033
-3.88223
-0.142544
-2.6382
-3.22849
0.167232
-6.9165
-3.23982
-0.235227
-3.89392
-2.49776
-6.67379
-0.814855
-8.03156
-1.71022
-8.34646
-3.12827
-2.49226
-0.91695
-1.76211
0.060215
-8.31103
-8.31298
-8.29969
-1.87875
0.0104142
-0.385565
-0.256909
-0.873006
-8.37596
-1.04235
-1.74769
-7.51357
-0.641621
-4.78751
-5.73145
-8.40225
-8.44213
-8.48904
-7.81462
-2.36092
-0.819571
-0.512749
-0.262193
-2.40877
-1.08752
0.118247
-0.563412
-0.286263
-2.47183
-0.584719
-0.682428
-4.30468
-2.45963
-5.08162
-3.01985
-1.9508
-1.82649
-0.434828
-1.40048
-2.04733
-1.76315
-1.04747
-1.79059
-2.72939
-2.74101
-2.79268
-4.58943
-0.999347
-1.08183
-2.16707
-1.76169
-2.31034
-1.78021
-0.37636
-0.292268
-2.86104
-2.35985
-2.63704
-3.75086
-2.26992
-2.30673
-2.46531
-0.883337
0.102794
-2.81927
-0.608722
-0.176724
-1.18921
-2.21276
-0.461719
-2.86104
-2.32436
-2.31237
-2.32436
-6.31044
-2.42103
-2.50309
-2.60519
-2.72521
0.165959
-5.49786
0.181865
0.144157
-2.86367
-1.49285
-7.34645
-1.22966
-1.09049
-4.20133
-5.15063
-0.702144
-2.6008
-4.78134
-1.82993
-5.07106
-4.87012
-0.593251
-5.34943
-2.79689
-0.915346
-0.705212
-0.829741
-7.48835
0.146865
-2.62899
0.0535241
-1.03943
-2.38995
-6.88713
-5.15193
-0.421283
-4.66475
-1.72587
-0.94085
-4.61753
-3.8841
0.153123
-3.52294
-0.585461
-1.15209
-7.71557
0.126675
-0.976486
-5.92563
-0.281145
-1.56121
-3.97505
-1.72086
-2.58597
-4.91956
-5.02318
-3.19015
-2.81465
-5.92703
-5.37025
-4.89075
-0.699029
-5.02967
-0.850544
-5.07623
-0.756189
-1.90003
-0.0288158
-3.68911
-1.09627
-5.12124
-5.24786
-0.357969
-5.14362
-1.67147
-4.13855
-1.61537
-5.09046
-1.75238
-2.95916
-2.95377
-3.16573
-1.62036
-1.37375
-0.830987
-4.50655
-0.599992
-0.280893
-2.94487
-4.77879
-2.92826
-3.04743
-0.258304
-5.20014
0.0914173
-3.18536
-5.084
-4.86646
-1.05662
-1.81166
0.119165
-4.57743
-4.88285
0.139265
0.0778676
-3.48222
-3.16387
-5.38237
-0.953983
0.0635319
-1.01447
-2.98222
-2.80419
-0.851524
-2.07513
-0.20148
0.121347
-3.14628
-0.122468
-6.70605
-2.35963
-0.940732
-0.988579
-2.78928
-4.41775
-2.67381
-3.63106
-0.103278
-3.36914
-4.89181
-2.74292
-2.70551
-1.4589
-4.74615
-1.46836
-0.692472
-4.93122
-2.36012
-0.217898
-0.474834
-7.71187
-0.5835
-1.40257
-2.6258
-4.77756
-6.56516
-4.42975
-0.600776
-5.11091
-1.00836
-4.5502
-4.48156
-2.86626
0.138105
-4.74959
-2.72826
-2.26459
-4.82546
-4.97048
-7.17473
-3.97599
-1.13857
0.171568
0.171333
-2.58232
-2.75066
0.105119
-2.75802
-0.712781
-3.69776
-0.252662
-1.54123
-5.90077
0.11989
-0.57433
-8.27981
-2.50441
-0.796233
0.149074
-3.21967
-0.329868
-2.08807
0.17576
-2.79643
-2.99516
-1.30079
-2.65639
-1.89141
-1.7169
-5.54738
0.186663
-0.520671
-5.5348
0.0573247
0.121875
-3.1497
-2.76414
-2.25942
-0.288418
-1.71464
-6.28944
-0.146166
-1.16902
-3.79511
-0.395628
-0.426006
0.113622
-1.31094
-0.940412
-0.911288
-1.48732
-5.4189
-2.83401
-0.310574
-0.61053
-4.90555
0.114498
-5.26731
-8.07836
-0.205051
-1.24345
-7.56744
-2.45494
-1.50221
-6.1504
-1.30905
-1.94185
0.114541
-4.41061
-1.63292
-7.49918
-0.979725
-7.9547
-0.676377
-7.78377
-3.45904
-2.02319
0.146515
-7.98989
-1.49675
-1.12595
-7.73812
-4.28579
-8.0683
-5.14755
-3.31402
-1.35572
-3.12043
-1.18998
-7.95325
-0.638243
-1.13475
-0.328786
-0.154587
-6.31001
-4.96051
-2.1801
0.152254
-1.39008
-5.75413
-4.96108
-1.00396
0.102741
-6.88134
-3.39012
-8.22003
-4.9876
-8.23673
-5.00968
-2.34927
-2.04776
-0.119669
-0.967845
-4.28267
-0.120664
-2.99322
-3.19861
-3.05806
-1.4213
0.161686
-0.474959
-0.0597973
-3.98382
-0.428009
-0.123078
-1.13941
-1.02899
-1.20322
-1.56569
-0.628476
-0.212752
0.0627542
-0.734521
-1.54441
-3.04675
-3.48834
-2.16502
-1.28466
-1.62305
-2.44006
-2.38833
-0.491824
-6.65154
-0.896499
-2.36461
-0.649829
-1.33459
0.156761
-5.04211
-1.09809
-0.0408431
-0.235697
-0.355516
-5.34631
-1.68906
0.174339
-6.55335
-6.03407
-3.97897
-0.697264
-2.67836
-0.208844
-0.337823
-2.16487
-2.78544
-3.20003
-0.733874
-5.16762
-0.488143
-1.57267
0.129445
-4.89824
-3.85605
-5.05653
-0.189009
-0.161962
-1.36493
-0.869951
-4.08141
-1.50559
-0.150664
0.159823
-1.9413
0.127763
-4.93509
-2.94401
-5.04018
0.0650823
-3.11324
-4.85056
-2.089
-6.23223
-0.947714
-1.38922
-3.15097
-0.835415
-1.32088
-6.50004
-1.98576
-0.239402
-2.88768
-0.188366
-0.189132
-0.324979
-0.447502
-2.58077
-2.27001
-1.97949
-1.82246
-2.24564
-0.0125461
-2.23657
0.128147
-5.19241
-0.854284
-2.17783
-1.43863
-5.28378
-0.547552
-2.44248
-3.09576
-0.958332
-3.22458
-4.14048
-1.24585
-1.78299
-0.64577
0.0643102
-1.80478
-3.22648
-0.978453
-0.427149
-0.865014
-1.2913
-1.77653
-4.57118
-4.35106
-5.34153
-3.9104
-2.74016
-1.88784
-5.36386
-5.1063
-1.84955
-1.94238
-5.73797
-2.80347
-1.10872
-2.32367
-1.6355
-2.0658
-0.932194
-0.307249
-1.63807
-2.77259
-0.108484
-1.89131
-0.522868
-1.28155
-0.304592
-2.54504
-1.99368
-0.675242
-1.99284
-2.89717
-0.618442
0.0918673
-0.638053
-2.6215
-2.64341
-4.55985
-1.16567
-0.864861
-2.37363
-0.497
-0.546214
-1.29879
-4.68759
-0.826666
-2.06163
-1.86307
-1.83483
0.158194
-1.0911
-0.901228
-0.957673
-5.24656
-2.40232
-1.42893
-1.41351
-0.197678
-2.29
-0.760478
0.0354613
-0.37466
-2.13224
-1.45835
-0.0948201
-0.359953
-2.3119
-3.18698
-5.62814
-0.398043
-0.310378
-0.27024
-0.538585
-0.373722
-5.12836
-5.78858
-1.6879
-3.76314
-4.22105
-0.300269
0.102186
-2.00616
-0.484169
-3.45826
-0.675873
0.0504799
0.150647
-0.0514767
-3.70502
-1.15841
-5.69769
-4.33115
-0.488051
-2.09506
0.171189
-2.69882
-2.16866
-0.270561
-2.29299
-2.23987
-0.506894
-0.241898
-1.13525
-0.761928
0.0797155
-7.0031
-0.344325
-1.30281
-0.0679633
-0.694609
-2.04964
-0.806626
-0.69917
-0.0586879
0.180533
0.149636
-0.305598
-2.17561
-0.713196
0.174757
-2.99832
-1.68055
-0.287005
-1.94418
-2.20653
0.148686
-1.17615
-0.323115
-1.48718
0.179913
-1.13171
-0.526548
-0.659445
-0.816079
-3.92006
-0.802677
-1.0041
-0.350095
-0.691815
-3.15743
-2.06631
-1.35842
-5.81553
0.0375999
-6.76724
-0.512574
-0.929538
-0.44109
-2.59813
-7.15153
-0.621812
-3.46694
-5.1939
-6.54782
-5.23662
-0.714905
-0.3301
-0.740117
-6.64158
-1.99569
-3.79058
-1.19734
-0.677584
-0.744491
-0.530253
-0.560818
-0.755583
-4.91561
-0.942031
-0.440307
-4.87728
-0.216592
0.162873
-5.90126
-4.25287
-0.92294
-1.53163
-1.93137
-0.220733
-0.638354
-1.97783
-3.36381
-2.81491
-0.341497
-1.77497
-0.412676
-5.93127
-0.815626
-5.73051
-4.00769
-0.923163
-0.722956
-0.514285
-7.66
-0.592249
-0.554226
-6.875
-3.46286
0.153861
0.114223
0.102703
-3.87038
-5.60725
-0.908208
-1.0924
-0.382069
-0.711981
-1.69444
-7.51572
-0.681098
-1.27853
-3.21742
-0.769094
-0.852873
-0.284765
-2.07325
-0.761001
-3.58957
-5.40709
-3.05024
-1.51234
0.139761
-0.562271
-0.718211
-0.755629
-3.90475
0.0672946
-6.04942
-1.06993
-0.546649
-3.80901
-3.34365
-3.86285
-3.86936
0.156466
-6.51798
-0.973089
-5.34431
-0.517805
-0.657565
-0.885303
-0.845671
-6.52691
-0.680112
-3.64325
-7.51493
-0.799049
-0.441033
-1.09672
0.102204
-1.37634
-7.3068
-2.00272
-4.61056
-1.76665
-0.88078
-0.612794
-3.65148
-0.985347
-7.76712
-7.38523
-1.36246
-7.3858
-2.88856
0.178407
-2.21774
-6.15752
-0.470399
-0.552846
-0.634341
-7.60665
-7.99983
0.142515
0.171602
-6.09977
-2.08864
-4.32837
-0.21636
-8.21527
-7.70983
-0.711651
-0.0945631
-0.448165
-0.327994
-5.98658
-5.21736
0.184656
-7.90737
-7.53677
-0.916235
-2.0773
-1.29452
-1.54394
-2.47983
-0.458225
-4.02044
-0.841355
-7.82019
-1.8369
-6.24918
0.158864
-3.07045
-0.511176
-0.377142
-7.23201
-4.05906
-5.72757
-0.533455
-5.26409
-2.97854
-4.63079
-8.09182
-0.664794
-0.204605
-7.84892
-3.80069
-7.9025
-0.188365
-5.98704
0.100141
-0.311933
-4.93238
-0.81556
-1.8841
-5.96689
-3.88837
-4.86882
-5.62737
-4.48648
-5.0654
-5.49575
-3.97998
-5.13096
-1.30213
-0.669424
0.152318
-7.17509
-5.77485
-6.40855
-2.31087
-3.07418
-0.732024
-7.12383
-2.20717
-0.638388
0.130021
0.155933
-0.374687
-3.76808
-2.9819
-8.12142
-0.515433
-1.93465
-0.386667
-8.05648
0.176947
-2.17094
-3.15861
-1.48875
-1.08232
-7.02621
-0.27225
-0.817082
-0.564193
-7.92871
-0.678479
-2.29658
-0.327627
-0.569968
-2.97772
-4.45469
-0.263531
0.108868
-3.96869
-0.258349
-6.58075
-1.80707
-0.205414
-4.59074
-2.62599
-1.99965
-5.95835
0.165018
-2.16208
-4.71762
-1.06337
-1.29708
-1.98679
-2.23751
-4.00209
-2.86042
-3.00298
-0.0116001
0.180022
-0.350595
-3.00373
-2.44734
-0.530758
-0.73356
-2.58743
-3.37508
-3.26551
-2.94495
-0.730336
-0.914897
0.145697
-1.95583
-3.99537
0.0435212
0.182991
-6.38512
-3.78508
-2.22062
-1.89383
-0.647318
-1.48282
-1.17704
-5.34873
-0.618944
-4.86935
-0.67682
-6.03804
-4.67204
-1.87469
0.159999
0.182582
-0.438687
-2.2022
-0.79777
-4.62128
-0.572949
-5.09632
-0.592054
-0.939111
-2.82738
-2.07276
-4.15597
-4.04837
0.0891797
-6.23829
-0.281281
-7.95389
0.103955
-4.45213
-0.635394
-2.08622
-0.372032
-2.46616
-3.97078
-6.84131
-2.83432
-2.56667
-0.77909
-4.3005
0.178423
-0.480879
-6.24701
-0.795563
-4.02568
-0.350506
-1.63607
-4.3055
-6.73047
-0.4536
-2.88239
-6.40055
0.0472911
-0.813197
-1.10056
-0.291788
-1.48131
-2.73827
-1.8207
-4.33073
-8.09946
-8.03783
-8.12346
-7.63425
-6.28136
0.183609
-4.82247
-6.07006
-6.82677
0.135932
-3.68718
-2.45678
-0.919879
-0.27265
-5.29713
-1.66377
-0.560746
-6.45447
-3.5701
-1.17954
-0.194907
-2.48029
-1.4949
-3.61213
-0.841314
-4.11319
-2.02118
-2.38053
-2.95392
-2.38723
-4.30554
0.170503
-4.693
-0.0965529
-1.19143
-1.6222
-2.5568
-6.22801
-4.46936
-3.3529
-4.27837
-5.4851
-0.637498
-5.9335
-4.85704
-1.55315
-0.816498
-4.94482
-4.2436
-6.84023
0.183193
-4.99925
-4.17875
-1.24199
-4.86132
-3.11681
-6.29773
-1.24581
-0.347977
-0.610861
-0.181779
-6.05137
-1.43077
-0.960132
0.111184
-6.04343
-2.10679
-2.28351
-2.20735
-0.510816
-4.42336
-5.76879
-1.43444
-3.47198
-1.88349
-1.51131
0.136431
-0.460075
0.186526
-4.41037
0.174769
-2.847
-0.295772
-2.63754
-3.71474
-1.06789
-0.533077
-4.72118
-6.16232
-6.75052
-1.04435
-0.390467
-1.05367
0.183622
-1.16447
-0.398732
-0.988989
-3.8863
-0.603163
-0.488697
-4.56428
-6.94405
0.169198
-1.30215
-0.708252
-5.62745
-6.19168
-2.38737
-2.12874
-4.50317
-4.1063
-0.517912
-0.686939
-1.22743
-1.2082
-3.48374
0.177635
-1.0482
-0.602081
-4.7563
0.0145464
-3.52394
0.187106
-2.55462
-2.98565
-0.840792
0.151669
-6.24859
-5.61425
-3.4361
-1.18548
-2.89349
-2.34479
-0.00957992
-4.70012
-7.31507
-5.72157
-0.483237
-5.8035
-2.48077
-5.72772
-1.20952
0.189024
-2.06004
-5.65
-1.12128
-4.35006
-0.73739
-4.60801
-5.49824
-1.24264
-7.57498
-2.70688
-2.77511
-0.257311
-3.82567
-0.689103
-0.818729
-4.81144
-7.32207
-0.485372
-0.434342
-4.39993
-0.540805
-0.497832
-0.521886
-1.0013
-1.06999
-0.11365
0.186024
-5.47845
-1.09587
-6.93189
-2.63179
-5.43367
-2.6668
0.185598
-7.52273
-5.09854
-0.482512
-6.99342
-0.328198
-0.703182
-5.83365
-0.91628
-0.353489
-0.432343
-5.76582
-3.29691
-5.25185
-0.908269
0.174045
-6.01635
-0.384614
-1.11778
-5.32459
-4.01269
-0.624265
-5.18326
-3.09133
-1.66179
-5.72844
0.182727
-6.13609
-2.30732
-5.88166
-2.72687
-3.92537
-6.61073
-0.973012
-6.74711
-5.42051
-5.9277
-5.9804
-6.11607
-6.12806
-2.55064
-2.47846
-2.34169
-0.717064
0.177449
-5.9348
-0.0204581
-6.20727
-6.2052
-5.99808
-5.96259
-1.21432
-3.27339
-1.68293
-3.90101
-6.10443
-0.507522
-6.46222
-6.41388
-6.54268
-6.04534
-6.2569
-6.55006
-0.711515
-6.4376
0.18453
-6.58213
-3.77662
-6.30955
-4.0916
-5.65097
-5.14929
-2.54262
-3.27237
-5.35151
-0.723439
-3.93319
-5.29803
0.188066
-2.52473
-0.577013
-0.628225
0.0385715
-3.1812
-0.864302
-3.37722
-6.48343
0.187052
-1.11651
-1.24394
-5.44704
-8.07356
-3.53782
-2.27455
-5.40173
-3.36769
-2.61901
-8.13189
-3.09218
-6.4152
-8.16567
-7.67628
-1.175
-7.95855
-2.69554
-4.70197
-2.95382
-0.985719
-4.45745
-2.54483
-2.98714
0.0214872
-1.19919
-1.33763
-1.57221
-0.432957
-1.72341
-0.859691
-1.10771
0.109589
-0.66096
-0.28522
-2.85588
-2.31472
-2.43706
-2.88773
-2.48544
-2.76306
-3.29725
-1.61446
-3.51512
-5.51876
-0.590722
-0.69784
0.187032
-1.03058
-1.21344
-0.507154
-1.30418
-0.876765
-3.55186
-0.96827
-0.959627
-2.77041
-2.7466
-0.814344
-0.63705
-0.586749
-6.59112
-6.51895
-0.378238
-0.867554
-0.983006
-1.0995
-2.07835
-2.95332
-0.994977
-5.5487
-3.17159
-0.508313
0.0795881
-4.05829
-5.24979
-0.98445
-3.56564
0.0177824
-6.43755
-5.61225
-5.88147
-0.854697
-1.04618
-0.386674
-1.1779
-1.9023
-1.68924
-3.87922
-3.44081
0.177618
-1.47586
-0.378715
-0.867433
-6.46961
-1.00226
-4.27746
-0.769735
-7.19773
-1.5875
-1.27249
-1.99453
-0.548383
-2.43321
-1.34299
-1.24736
-2.93087
-0.629256
-1.02151
-0.93422
0.0256851
-1.32325
0.169407
-3.29115
-1.80409
0.177559
-0.948732
-2.32016
-6.34964
-6.42509
-0.63426
-0.911931
-2.11251
-0.773832
-5.20087
-0.621352
-5.45309
-4.17937
-1.30573
-2.65565
-0.122412
-1.90752
-3.63136
-2.1267
-5.4513
-1.35326
-1.2745
-0.952979
-0.874297
-0.629207
0.165991
-1.86468
-0.614786
-0.753824
-5.36249
-0.532204
-0.791865
-0.571833
-1.20319
-0.531996
-0.658344
-2.73076
-6.49056
-2.15962
-0.154385
0.182841
-0.672918
0.169651
-3.15355
-2.18581
-6.29749
-0.822674
-2.24722
0.142966
-0.297505
-1.00972
-5.34117
-0.461903
-3.09532
0.164408
-2.03147
-0.0481085
-0.80363
-0.626243
-1.76527
-4.37416
0.169575
-1.04424
0.138412
-1.01276
-0.974937
0.113841
-1.8187
-0.616253
-1.15268
0.163091
-2.26782
-1.83979
-0.837111
-5.81542
-1.37103
-0.965683
-0.394487
-2.23731
-0.263224
-0.872514
-1.52406
-1.08301
-1.72989
0.174087
0.0613171
-0.421602
-5.33119
-5.22313
-3.58745
-1.71896
-6.97303
-0.449662
-1.40504
-0.663342
-2.63123
-0.469295
-1.43863
-0.776281
-0.760209
-0.670937
-0.6311
-0.860903
-1.05854
0.172029
-0.803004
-0.573589
-0.957559
-0.435957
-0.729459
-6.57541
0.105592
0.183422
-2.54058
-1.09856
-0.592039
-0.55377
-2.75795
-6.51213
0.174666
0.046629
-4.07117
-0.962332
-0.656285
0.00145495
0.123927
-0.8755
-3.53227
-0.168603
-1.16509
-1.01932
-0.836698
0.0896892
-0.155973
0.0689791
-0.702057
-0.766073
0.187574
0.177455
-0.582384
-2.46344
-0.726418
-3.2756
0.00109788
-1.19972
-7.14733
-3.37155
-0.0271888
-6.77213
-5.8733
-7.31074
-5.6875
-0.61856
-0.949739
-2.18031
-1.91727
-0.981967
-0.989978
-1.59627
-6.67053
-1.06866
-1.25425
-7.07647
-1.02032
-4.79298
0.170831
-0.847444
0.00615519
-5.11399
0.188001
-2.39569
-1.16833
0.141778
-7.46801
-2.84206
-2.08112
-5.76904
-2.88033
-0.914582
0.110118
-2.11716
-0.811871
-0.0144639
-5.65162
-0.668769
-2.22984
-2.49609
-0.332313
-0.0307349
-1.09712
-0.560331
-7.32363
-2.61229
0.0350867
0.177595
-1.92098
-1.12192
-0.0764678
-0.9623
0.181984
-1.96292
-0.669557
-3.0429
-1.21626
-3.38063
-3.95676
-6.22057
-0.421504
-7.08203
-1.39155
-1.43
-7.94042
0.0108245
-1.42016
-0.0266527
-7.74573
-7.018
0.076688
-1.11303
0.0622897
-1.04901
-0.215567
-1.33321
-1.48934
0.180565
-3.70954
-1.29038
0.169132
0.0854518
-1.50392
-7.86585
0.012381
0.121668
0.0299799
-1.94291
-1.25872
-4.2257
-0.16849
-2.86227
0.188137
-2.39405
-5.22841
-6.43599
-1.23028
-0.0247574
-1.24325
-1.71526
-5.77219
-0.329319
-8.04425
0.0486195
-1.7581
-0.486093
-6.3464
0.0575075
-0.99591
-1.06368
-1.54358
0.122263
0.10078
-5.84865
-0.697096
-0.977444
-5.23172
-0.729832
-4.3727
-1.47845
-4.39424
-1.62902
-1.61538
0.113955
-1.84845
-0.593096
-5.55284
-1.22913
-0.0617071
-1.25075
-1.29071
-0.492299
-7.82564
-4.80867
-2.35523
-6.53287
-1.31253
-7.93814
-1.89671
0.140844
-0.498178
-2.55008
-3.06481
-0.391231
-5.29113
-0.177999
-2.84062
-0.279796
-0.418621
-1.49348
0.00481644
-0.550061
-2.43615
-4.47333
-4.48147
-4.44794
-1.072
-0.638988
-0.854965
-6.94856
-1.24808
-4.03516
-1.2088
-0.511853
-1.39373
-5.3383
-4.05438
-2.24179
-1.40945
0.071469
-0.931004
-5.85013
-1.49166
-0.610797
-0.716962
-0.976301