<VTKFile type="UnstructuredGrid" version="0.1" byte_order="LittleEndian">
  <UnstructuredGrid>
    <Piece NumberOfPoints="7249" NumberOfCells="14027">
      <Points>
        <DataArray type = "Float64" NumberOfComponents="3" format="ascii">
3.5 2.00105 0.0 
3.5 1.99895 0.0 
0 0 0.0 
12 0 0.0 
0 4 0.0 
12 4 0.0 
3.02488 3.10049 0.0 
3.54012 3.09762 0.0 
2.97433 1.93934 0.0 
2.3504 1.2816 0.0 
3.46822 2.00422 0.0 
3.4492 2.00609 0.0 
9.75011 0.429191 0.0 
4.04015 2.1502 0.0 
3.4284 2.00811 0.0 
3.08807 1.95055 0.0 
3.40943 2.00992 0.0 
3.25838 2.35422 0.0 
3.39055 2.01171 0.0 
10.5646 0.785159 0.0 
3.37064 2.01358 0.0 
1.83704 2.92451 0.0 
7.61191 0.93837 0.0 
8.95064 0.106004 0.0 
3.3441 2.01602 0.0 
3.09521 2.05214 0.0 
3.32932 2.01737 0.0 
3.31416 2.01873 0.0 
3.36876 2.26764 0.0 
3.30101 2.01991 0.0 
3.25768 2.03599 0.0 
4.29539 2.8496 0.0 
3.28104 2.02167 0.0 
11.443 2.87979 0.0 
3.26112 2.02341 0.0 
7.27082 2.03327 0.0 
8.95326 3.49021 0.0 
2.76399 0.843657 0.0 
3.23123 2.02597 0.0 
7.02103 2.12111 0.0 
8.28155 1.27045 0.0 
3.21131 2.02765 0.0 
3.20135 2.02848 0.0 
3.18889 2.02951 0.0 
3.17635 2.03053 0.0 
0.759789 2.22952 0.0 
4.92163 1.87294 0.0 
3.16034 2.03183 0.0 
3.15052 2.03262 0.0 
0.628639 2.20506 0.0 
4.37672 2.58045 0.0 
3.13957 2.03349 0.0 
2.48103 2.13794 0.0 
3.1296 2.03426 0.0 
6.48933 2.22857 0.0 
3.12171 2.03487 0.0 
2.88545 1.9172 0.0 
3.11166 2.03562 0.0 
2.5181 1.97605 0.0 
3.10169 2.03635 0.0 
7.33428 1.57962 0.0 
3.0922 2.03704 0.0 
9.87757 2.91797 0.0 
3.08224 2.03774 0.0 
1.99061 0.467999 0.0 
3.07177 2.03847 0.0 
3.05986 2.03927 0.0 
3.04983 2.03993 0.0 
3.21057 1.74793 0.0 
3.03985 2.04058 0.0 
4.30691 0 0.0 
3.02987 2.04121 0.0 
8.66013 2.72876 0.0 
3.0199 2.04182 0.0 
3.00992 2.04242 0.0 
6.80628 0.125893 0.0 
3.00193 2.04289 0.0 
2.24493 1.09945 0.0 
5.22929 3.62691 0.0 
2.98711 2.04373 0.0 
9.13918 0.642812 0.0 
2.97747 2.04427 0.0 
8.24797 3.03812 0.0 
2.96958 2.04469 0.0 
3.47062 0 0.0 
2.96201 2.04509 0.0 
8.49299 0 0.0 
2.95043 2.04569 0.0 
9.9963 2.9126 0.0 
2.94005 2.0462 0.0 
2.93089 2.04665 0.0 
2.00846 0.96503 0.0 
2.24791 2.55131 0.0 
2.92007 2.04715 0.0 
9.25464 2.64568 0.0 
2.91208 2.04752 0.0 
4.90901 0.0899404 0.0 
10.8572 2.96282 0.0 
2.8996 2.04807 0.0 
2.8946 2.04828 0.0 
8.13323 0.520161 0.0 
2.88961 2.04847 0.0 
6.92597 2.0896 0.0 
2.88461 2.04866 0.0 
2.88003 2.04882 0.0 
1.9975 2.6013 0.0 
7.01026 3.76789 0.0 
2.87462 2.04899 0.0 
3.11054 0.901547 0.0 
2.86962 2.04914 0.0 
5.54882 0.894177 0.0 
4.89352 2.23968 0.0 
2.85755 2.04945 0.0 
2.86213 2.04934 0.0 
7.00004 2.02392 0.0 
11.0785 1.20913 0.0 
2.85213 2.04957 0.0 
2.62876 0.835621 0.0 
2.84714 2.04967 0.0 
7.53783 2.98381 0.0 
2.84214 2.04975 0.0 
2.83714 2.04983 0.0 
3.98751 2.29354 0.0 
2.7008 2.0473 0.0 
2.83214 2.04989 0.0 
2.82714 2.04994 0.0 
2.76836 2.05294 0.0 
2.81965 2.04999 0.0 
2.82215 2.04997 0.0 
4.80334 2.10985 0.0 
6.05137 2.99926 0.0 
2.81215 2.05001 0.0 
2.80472 2.05001 0.0 
2.79507 2.04997 0.0 
2.79965 2.05 0.0 
5.55584 1.18487 0.0 
5.80117 3.89621 0.0 
2.78966 2.04993 0.0 
8.27516 3.77975 0.0 
2.78466 2.04988 0.0 
9.45522 2.67434 0.0 
2.77966 2.04982 0.0 
7.88728 1.90278 0.0 
2.77466 2.04975 0.0 
8.54252 0.619285 0.0 
2.77216 2.04971 0.0 
2.76716 2.04961 0.0 
2.76467 2.04956 0.0 
3.26672 1.95332 0.0 
2.75967 2.04946 0.0 
2.75467 2.04934 0.0 
6.52809 2.18093 0.0 
2.74967 2.0492 0.0 
8.49499 2.49978 0.0 
2.74468 2.04906 0.0 
9.51856 2.75585 0.0 
2.73968 2.04891 0.0 
2.73469 2.04874 0.0 
9.41426 2.76593 0.0 
2.73219 2.04865 0.0 
2.72719 2.04847 0.0 
2.72261 2.04829 0.0 
3.25845 1.94126 0.0 
4.36168 2.87285 0.0 
2.7172 2.04806 0.0 
8.83747 2.67733 0.0 
5.10852 0.593102 0.0 
2.71221 2.04785 0.0 
1.92625 1.35091 0.0 
2.70472 2.0475 0.0 
2.67763 2.04605 0.0 
2.69045 2.04677 0.0 
2.69475 2.047 0.0 
8.13831 0.956352 0.0 
5.75088 4 0.0 
2.68477 2.04646 0.0 
4.79305 1.92641 0.0 
8.08707 1.03905 0.0 
2.67479 2.04588 0.0 
9.04251 2.70224 0.0 
2.66978 2.04558 0.0 
2.6648 2.04526 0.0 
9.48102 3.02398 0.0 
2.65981 2.04494 0.0 
8.79605 3.01706 0.0 
2.65482 2.04461 0.0 
4.64549 0.590798 0.0 
2.64741 2.04409 0.0 
8.98557 2.77888 0.0 
7.99404 0.835602 0.0 
2.63986 2.04355 0.0 
6.1274 0 0.0 
2.63239 2.04298 0.0 
8.27174 0.700244 0.0 
2.62498 2.0424 0.0 
8.23459 1.16471 0.0 
2.62242 2.0422 0.0 
8.44244 0.812526 0.0 
2.61495 2.04158 0.0 
9.08968 2.78231 0.0 
2.60755 2.04095 0.0 
9.42671 3.11439 0.0 
9.46801 1.1822 0.0 
2.60001 2.04028 0.0 
7.08863 0.630048 0.0 
2.58798 2.03916 0.0 
2.59254 2.03959 0.0 
3.45395 2.94758 0.0 
6.22163 2.37134 0.0 
8.97315 2.9414 0.0 
2.58259 2.03864 0.0 
9.42058 2.93769 0.0 
6.8203 3.88793 0.0 
2.57513 2.0379 0.0 
2.57264 2.03764 0.0 
2.57016 2.03735 0.0 
2.56768 2.03702 0.0 
2.56522 2.03662 0.0 
2.56276 2.03616 0.0 
2.56031 2.03565 0.0 
2.55788 2.03508 0.0 
2.55546 2.03446 0.0 
2.55305 2.03379 0.0 
2.55066 2.03307 0.0 
2.54828 2.0323 0.0 
2.54592 2.03148 0.0 
2.54357 2.03062 0.0 
2.54124 2.02971 0.0 
2.53893 2.02876 0.0 
2.53664 2.02777 0.0 
2.53436 2.02674 0.0 
2.5321 2.02567 0.0 
2.52986 2.02456 0.0 
2.52764 2.02342 0.0 
2.52544 2.02224 0.0 
2.52325 2.02103 0.0 
2.52108 2.01978 0.0 
2.51893 2.01851 0.0 
2.5168 2.0172 0.0 
2.51469 2.01587 0.0 
2.51259 2.01451 0.0 
2.51052 2.01312 0.0 
2.50845 2.0117 0.0 
2.50644 2.01022 0.0 
2.50456 2.00858 0.0 
2.50283 2.00678 0.0 
2.50139 2.00474 0.0 
2.50037 2.00246 0.0 
2.5 2 0.0 
2.50037 1.99754 0.0 
2.50139 1.99526 0.0 
2.50283 1.99322 0.0 
2.50456 1.99142 0.0 
2.50644 1.98978 0.0 
2.50845 1.9883 0.0 
2.51052 1.98688 0.0 
2.51259 1.98549 0.0 
2.51469 1.98413 0.0 
2.5168 1.9828 0.0 
2.51893 1.98149 0.0 
2.52108 1.98022 0.0 
2.52325 1.97897 0.0 
2.52544 1.97776 0.0 
2.52764 1.97658 0.0 
2.52986 1.97544 0.0 
2.5321 1.97433 0.0 
2.53436 1.97326 0.0 
2.53664 1.97223 0.0 
2.53893 1.97124 0.0 
2.54124 1.97029 0.0 
2.54357 1.96938 0.0 
2.54592 1.96852 0.0 
2.54828 1.9677 0.0 
2.55066 1.96693 0.0 
2.55305 1.96621 0.0 
2.55546 1.96554 0.0 
2.55788 1.96492 0.0 
2.56031 1.96435 0.0 
2.56276 1.96384 0.0 
2.56522 1.96338 0.0 
2.56768 1.96298 0.0 
2.57016 1.96265 0.0 
2.57264 1.96236 0.0 
2.57513 1.9621 0.0 
2.58259 1.96136 0.0 
5.37706 1.70935 0.0 
2.58998 1.96065 0.0 
2.70265 2.05767 0.0 
2.59503 1.96018 0.0 
2.60001 1.95972 0.0 
8.34182 0.99382 0.0 
2.60499 1.95928 0.0 
2.60997 1.95884 0.0 
7.9704 1.8341 0.0 
2.61495 1.95842 0.0 
2.61993 1.95801 0.0 
4.98986 2.23313 0.0 
2.62491 1.9576 0.0 
2.62989 1.95721 0.0 
8.27627 3.56296 0.0 
2.63488 1.95683 0.0 
2.63986 1.95645 0.0 
2.64485 1.95609 0.0 
9.99103 1.15605 0.0 
2.64983 1.95574 0.0 
2.6623 1.9549 0.0 
2.65482 1.95539 0.0 
2.65981 1.95506 0.0 
8.17613 1.24546 0.0 
3.9346 1.75841 0.0 
2.66729 1.95458 0.0 
11.2956 1.25205 0.0 
8.33045 1.37709 0.0 
2.67228 1.95427 0.0 
2.67727 1.95397 0.0 
6.22457 1.68412 0.0 
2.68475 1.95354 0.0 
4.49105 0.755688 0.0 
2.69217 1.95314 0.0 
11.1454 3.21 0.0 
2.69723 1.95288 0.0 
2.69973 1.95275 0.0 
5.1041 2.07457 0.0 
2.70715 1.95239 0.0 
3.24299 1.08143 0.0 
2.90785 2.09913 0.0 
2.71221 1.95215 0.0 
2.7172 1.95194 0.0 
7.08846 1.67817 0.0 
2.7222 1.95173 0.0 
4.50494 2.71555 0.0 
2.72719 1.95153 0.0 
4.31223 2.91904 0.0 
1.35 1.98589 0.0 
2.73219 1.95135 0.0 
2.73718 1.95118 0.0 
5.02723 1.95862 0.0 
6.66879 2.2786 0.0 
2.74218 1.95102 0.0 
1.8224 1.1558 0.0 
2.74967 1.9508 0.0 
2.76007 1.95054 0.0 
2.7571 1.9506 0.0 
5.0377 2.08673 0.0 
1.27321 0 0.0 
2.76467 1.95043 0.0 
2.76966 1.95034 0.0 
7.21232 1.13741 0.0 
2.77216 1.95029 0.0 
2.77716 1.95021 0.0 
2.77966 1.95018 0.0 
2.78466 1.95012 0.0 
2.79209 1.95005 0.0 
8.5317 3.37405 0.0 
2.79715 1.95001 0.0 
5.22417 1.82508 0.0 
6.34623 0.857569 0.0 
2.80215 1.94999 0.0 
2.80715 1.94998 0.0 
7.07339 1.95771 0.0 
2.81215 1.94999 0.0 
2.81715 1.95 0.0 
3.76094 1.3855 0.0 
6.537 2.04355 0.0 
3.66007 2.90876 0.0 
2.82215 1.95003 0.0 
2.82714 1.95006 0.0 
2.82964 1.95009 0.0 
5.10445 1.87773 0.0 
2.83707 1.95017 0.0 
2.84464 1.95029 0.0 
2.84964 1.95038 0.0 
7.74434 2.15547 0.0 
2.85463 1.95048 0.0 
5.01917 1.52083 0.0 
2.8554 0.928433 0.0 
2.86213 1.95066 0.0 
2.86713 1.95079 0.0 
5.46984 2.96172 0.0 
2.87212 1.95093 0.0 
2.87712 1.95109 0.0 
12 0.990786 0.0 
2.88211 1.95125 0.0 
11.7225 0.522247 0.0 
2.88711 1.95143 0.0 
6.7031 3.20393 0.0 
2.8921 1.95162 0.0 
1.65098 0.788613 0.0 
2.8971 1.95183 0.0 
6.88522 4 0.0 
2.90417 1.95213 0.0 
2.91208 1.95248 0.0 
5.14871 1.60688 0.0 
2.92207 1.95294 0.0 
10.5139 4 0.0 
2.93157 1.95339 0.0 
1.73985 0 0.0 
2.94154 1.95387 0.0 
2.95152 1.95437 0.0 
3.00631 0.899086 0.0 
2.96201 1.95491 0.0 
5.32816 2.82164 0.0 
2.9715 1.95541 0.0 
5.45591 0.60546 0.0 
2.98147 1.95595 0.0 
0.966707 1.21788 0.0 
2.99145 1.95651 0.0 
5.25744 2.73845 0.0 
3.00193 1.95711 0.0 
6.49301 3.12287 0.0 
3.01143 1.95767 0.0 
10.0295 1.3573 0.0 
3.02139 1.95827 0.0 
6.57176 2.37503 0.0 
3.03137 1.95889 0.0 
10.079 1.86432 0.0 
3.04135 1.95952 0.0 
2.37133 1.3749 0.0 
3.05132 1.96016 0.0 
6.68848 2.38189 0.0 
3.0618 1.96086 0.0 
5.00003 4 0.0 
3.07177 1.96153 0.0 
0.769062 1.4551 0.0 
3.08126 1.96219 0.0 
2.41677 2.51326 0.0 
3.09172 1.96293 0.0 
3.09837 1.96341 0.0 
12 1.23682 0.0 
1.83945 2.41977 0.0 
3.11166 1.96438 0.0 
10.1108 4 0.0 
3.12114 1.96509 0.0 
3.1311 1.96585 0.0 
6.86748 2.2434 0.0 
3.14156 1.96667 0.0 
4.80162 2.96802 0.0 
3.15104 1.96742 0.0 
3.68313 0 0.0 
6.43196 2.27175 0.0 
3.17146 1.96907 0.0 
6.59107 2.00719 0.0 
3.18336 1.97004 0.0 
6.42434 2.17873 0.0 
3.20135 1.97152 0.0 
3.22072 1.97314 0.0 
1.71874 3.07747 0.0 
6.67476 1.24569 0.0 
3.23123 1.97403 0.0 
1.92494 0.863316 0.0 
3.24555 1.97525 0.0 
8.58402 0.30847 0.0 
3.26112 1.97659 0.0 
6.05132 2.47649 0.0 
3.12043 1.8943 0.0 
3.28104 1.97833 0.0 
11.6153 4 0.0 
12 0.744016 0.0 
3.30038 1.98003 0.0 
8.26583 1.45566 0.0 
8.59072 3.47941 0.0 
3.31787 1.9816 0.0 
12 0.248521 0.0 
3.33233 1.9829 0.0 
8.37767 1.48423 0.0 
8.68938 1.7583 0.0 
3.35073 1.98458 0.0 
1.50522 0 0.0 
3.37064 1.98642 0.0 
1.04781 0 0.0 
12 2.76472 0.0 
3.39055 1.98829 0.0 
8.22608 1.63221 0.0 
7.07459 3.64663 0.0 
3.41483 1.99059 0.0 
10.7257 4 0.0 
[...]
<PointData>
  <DataArray type = "Float64" Name="BLMLevelSetLayer1" format="ascii">
0.256529
0.256529
-2.94316
-8.47535
-2.94316
-8.47535
-0.800721
-0.838681
0.24033
-0.457445
0.256529
0.256531
-6.1877
-0.303831
0.256529
0.244444
0.25653
-0.0728373
0.256529
-6.91156
0.256529
-0.876611
-3.98996
-5.51345
0.256529
0.241248
0.256529
0.256529
0.0037166
0.256531
0.244286
-0.906523
0.256529
-7.73492
0.256529
-3.51443
-5.3964
-0.850107
0.256529
-3.26655
-4.5802
0.256529
0.256529
0.256529
0.25653
-1.49951
-1.17067
0.256529
0.25653
-1.6269
-0.794344
0.256529
0.133198
0.256529
-2.74145
0.256529
0.222375
0.256529
0.251356
0.256529
-3.60061
0.256529
-6.18662
0.256529
-1.34345
0.256529
0.256529
0.256529
0.0329334
0.256528
-1.89914
0.256528
-4.95466
0.256529
0.256529
-3.54345
0.256529
-0.663235
-2.11705
0.256528
-5.54342
0.256528
-4.60338
0.256528
-1.7308
0.256529
-5.12173
0.256529
-6.30341
0.256529
0.25653
-0.880526
-0.340912
0.256529
-5.5341
0.256529
-2.11615
-7.16327
0.256525
0.256525
-4.60697
0.256525
-3.17059
0.256525
0.256527
-0.52366
-3.67331
0.256525
-0.803702
0.256525
-2.07117
-1.15728
0.256525
0.256529
-3.24359
-7.36301
0.25653
-0.862784
0.256524
-3.89918
0.25653
0.256524
-0.311995
0.25653
0.256529
0.256524
0.25322
0.256525
0.256529
-1.05134
-2.48317
0.25653
0.256525
0.256526
0.256525
-1.95463
-2.72458
0.256525
-4.83914
0.256525
-5.73663
0.256525
-4.13181
0.256525
-4.97133
0.256529
0.256524
0.256525
0.232861
0.256525
0.256525
-2.7769
0.256525
-4.7633
0.256525
-5.80918
0.256525
0.256525
-5.70698
0.256529
0.256524
0.25653
0.221558
-0.96925
0.256524
-5.12362
-1.87976
0.256529
-0.606737
0.256526
0.256527
0.256528
0.256526
-4.49751
-2.75383
0.256526
-1.03856
-4.4299
0.256526
-5.33016
0.256525
0.256526
-5.81134
0.256526
-5.1361
0.256526
-1.55869
0.256525
-5.28391
-4.38564
0.256525
-3.04484
0.256529
-4.68878
0.256526
-4.551
0.256529
-4.82631
0.256526
-5.38748
0.256525
-5.77384
-5.76711
0.256525
-3.58432
0.256525
0.256529
-0.681177
-2.49018
-5.29681
0.256529
-5.73768
-3.56246
0.256519
0.256529
0.256447
0.256412
0.256442
0.256529
0.256447
0.25642
0.256448
0.256529
0.256454
0.25643
0.256455
0.256529
0.256461
0.256439
0.256462
0.256529
0.256468
0.256448
0.256469
0.256529
0.256474
0.256457
0.256476
0.256529
0.25648
0.25646
0.256483
0.256529
0.256175
0.256017
0.256095
0.256529
0.255516
0.255142
0.255516
0.256529
0.256095
0.256017
0.256175
0.256529
0.256483
0.25646
0.25648
0.256529
0.256476
0.256457
0.256474
0.256529
0.256469
0.256448
0.256468
0.256529
0.256462
0.256439
0.256461
0.256529
0.256455
0.25643
0.256454
0.256529
0.256448
0.25642
0.256447
0.256529
0.256442
0.256412
0.256447
0.256529
0.256519
0.256529
-1.64274
0.256526
0.246269
0.256525
0.256526
-4.68852
0.256525
0.256526
-4.21691
0.256525
0.256526
-1.2513
0.256525
0.256526
-4.76864
0.256525
0.256526
0.256526
-6.289
0.256526
0.25653
0.256525
0.256526
-4.47991
-0.240192
0.256525
-7.57477
-4.61378
0.256529
0.256525
-2.48617
0.256526
-1.3334
0.25653
-7.48385
0.256525
0.256526
-1.34926
0.256525
-0.633983
0.205156
0.256529
0.256524
-3.34624
0.25653
-0.976523
0.256524
-0.969206
-0.894893
0.256529
0.256524
-1.27124
-2.9244
0.256529
-0.822223
0.256525
0.256527
0.256524
-1.28356
-2.08398
0.256525
0.256525
-3.55445
0.256529
0.256524
0.256525
0.256525
0.25653
-4.95913
0.256524
-1.47638
-2.81003
0.256529
0.256524
-3.3171
0.25653
0.256524
-0.410113
-2.78077
-0.665189
0.256529
0.256524
0.256525
-1.35249
0.256524
0.256525
0.256525
-3.99062
0.256525
-1.3361
-0.765371
0.256529
0.256524
-1.93508
0.25653
0.256524
-8.30305
0.25653
-8.09756
0.256524
-3.16499
0.25653
-1.21809
0.256524
-3.67482
0.256528
0.256529
-1.43815
0.256529
-7.03663
0.256529
-1.87054
0.256529
0.256529
-0.800174
0.256529
-1.74735
0.256529
-2.14501
0.256529
-1.46381
0.256529
-1.64934
0.256529
-2.93981
0.256529
-6.30447
0.256529
-2.83792
0.256529
-6.32386
0.256529
-0.362078
0.256529
-2.95461
0.256529
-2.24265
0.256529
-1.55806
0.256529
-0.241937
0.256529
0.256528
-8.27757
-0.524759
0.256529
-6.64986
0.256529
0.256529
-3.11966
0.256529
-1.36496
0.256529
-1.75072
-2.68791
0.256529
-2.83454
0.256529
-2.67321
0.256529
0.25653
-1.06994
-3.00637
0.256529
-1.0094
0.256529
-5.10117
0.256529
-2.33871
0.185991
0.256529
-8.10131
-8.33561
0.256529
-4.54017
-5.04451
0.256529
-8.42183
0.256529
-4.64823
-4.93843
0.256529
-1.96887
0.256529
-2.21061
-8.27771
0.256529
-4.48376
-3.67865
0.256529
-7.24054
0.256529
-6.83813
0.256529
-2.92229
-8.37522
0.256529
-6.16015
-0.382415
-1.77815
-2.75176
-2.56953
-0.329888
-0.816175
-5.99343
-0.792052
-1.79172
-2.06298
-1.75799
-0.381203
0.233616
-5.57901
-2.20533
-1.98415
-2.09217
-1.9786
-4.61734
-0.776836
-4.37389
-0.797552
-0.777798
-5.05049
-7.2427
-7.65282
-3.81472
-5.1975
-2.05538
-1.87849
-4.92389
-6.84899
-0.149961
-0.43675
-0.350904
-0.807234
-6.60628
-0.799539
-7.96406
-1.01906
-8.27895
-6.52446
-3.16548
-0.452791
-1.69461
-2.57068
-8.24352
-8.24548
-8.23219
-1.81124
-0.44026
-2.85748
-1.804
-2.57122
-8.30845
-4.00637
0.0710648
-7.44607
-2.93463
-0.905789
-0.36958
-8.33474
-8.37463
-8.42154
-7.74711
-0.180187
0.0467963
-5.0438
-3.06053
-2.34126
-0.804219
-3.18368
-0.704448
-0.775681
-2.40432
-1.70347
-6.35203
-1.59428
-0.766711
-0.706543
-0.860828
-1.88329
0.234672
-2.29342
-5.66117
-1.97983
-1.69564
-6.09564
-1.72308
0.166635
-2.6735
-3.67215
-4.52192
-1.66927
-0.221429
-2.09956
-1.69418
-1.33905
-1.71271
-6.19973
-0.428258
-2.79353
-2.29234
-2.56953
-2.42267
-0.745312
-2.23923
-2.3978
-0.311372
-0.813856
-2.75176
-0.17269
-1.01805
-0.978699
-2.14525
-0.164207
-2.79353
-2.25685
-2.24486
-2.25685
-6.24294
-2.35352
-2.43558
-2.53768
-2.6577
-2.72666
-5.43035
-0.976213
-0.789696
-0.110315
-0.00828032
-7.27895
-2.2033
-0.319163
-1.10885
-5.30196
0.212579
-0.892655
-2.66111
-1.76243
-5.00355
-0.889489
-2.55733
-5.28193
-0.803309
-2.95411
0.250199
-0.807158
-7.42084
0.184765
-1.63912
-0.368433
0.123371
0.171119
-6.81963
-5.08442
-2.07846
-4.59724
-4.71314
-0.634276
-4.55002
-0.356516
0.22063
-0.189773
-0.224062
-1.65941
-7.64806
0.237728
-0.465774
-0.326313
-0.687916
-1.4937
-1.75951
-1.65336
-0.214297
-3.78284
-4.95568
-3.12265
-2.51315
-1.01574
-5.30274
-5.07956
0.234012
-2.9666
-0.783036
-5.00872
-0.541618
-0.772941
-0.864956
-2.72161
-0.688084
-5.05374
-5.18035
-0.56463
-5.07612
0.244537
-4.07104
-1.54786
-5.02295
-0.322261
-0.262728
-0.517658
-3.09822
-1.55285
-1.67861
-5.90274
-4.43905
-2.8914
-4.84258
-1.6813
-4.71128
-0.54236
-0.525002
-5.7756
-2.86169
-0.240977
-2.89217
-5.01649
-4.79895
-1.82945
-0.288483
-2.98108
-4.50992
-4.81534
-2.90282
-0.190974
-2.53115
-5.31539
-2.80458
-3.41431
0.203232
-5.841
0.130463
-2.73668
-1.73712
-0.436562
-0.884282
0.0420794
-3.07877
-2.75196
-5.03075
-2.29212
-3.11869
-0.520581
-2.72177
-4.35024
-2.60631
-0.792098
-1.08529
-3.30163
-4.8243
-0.19917
-1.30113
-1.39139
-0.376884
-1.40085
-3.10293
-4.86372
-0.572073
-1.15943
-0.620031
-7.64437
-0.0480728
-1.59688
-2.33442
-4.71005
-2.56195
-4.36224
-2.29434
-2.43022
-1.02527
-4.4827
-4.41406
-0.918248
-6.63855
-4.68208
0.216068
-2.19709
-4.75795
-4.90298
-7.10722
-0.867215
0.187502
-1.33422
-0.930107
-2.51481
-2.68315
0.188763
0.234265
0.196457
-0.927756
0.173925
-3.42544
-2.68889
0.206231
-0.506823
-8.2123
-0.733788
-0.544791
-2.65416
-5.85857
-3.16112
-2.02056
-0.941012
-2.72892
-2.6372
-1.23328
-2.58888
-1.8239
-1.64939
-2.55902
0.238841
-2.452
-1.53235
-0.266741
0.124924
-3.08219
-3.12636
-2.91446
-0.515896
-1.64714
-1.47374
-2.20823
-1.10151
-2.69616
-0.651572
-0.609183
-3.61836
-0.539409
-0.872905
-1.02608
-0.44596
0.243924
0.21808
-2.77869
0.119059
-0.145675
-1.24178
-3.56201
-8.01085
-3.89436
-0.952407
-7.49993
-0.240237
-1.4347
-0.51524
-1.24154
0.249531
-0.839716
-0.0741056
-0.980165
-7.43167
-0.135845
-7.88719
-0.910748
-7.71627
0.142781
-1.95568
-1.04402
-7.92239
-1.42924
-0.543483
-7.67061
-4.21829
-8.00079
-1.85482
-0.95357
-1.28821
-3.05292
-1.12247
-7.88574
-3.26186
0.188931
-0.0338258
-1.25797
-6.2425
-0.647325
-1.04729
-5.10437
-1.32258
0.183124
-4.89357
-1.41497
-5.94992
-6.81383
-3.32261
-8.15252
-4.98459
-8.16922
-0.0733524
-0.357876
-0.573122
-0.73491
-0.0576314
-4.21516
-2.38862
-2.92572
-3.1311
-4.91976
-2.28325
-2.11043
-1.17124
-4.33621
-0.791303
0.178123
0.230409
-0.417775
0.230567
-1.13571
-1.49819
-3.00385
0.216398
-3.38778
0.22854
-1.4769
-2.97924
-3.42083
-2.09752
-1.21715
-1.55555
-0.216354
-0.643365
-0.574186
-0.95467
0.160117
-1.34452
-0.87814
-1.26708
-0.413928
-4.9746
-1.03058
-2.09505
0.183776
-0.947277
-3.63836
-1.62155
0.129108
-6.48585
-5.96656
-1.06865
-6.23564
0.225381
-0.105153
-0.567794
-2.09736
-0.987841
0.0275644
-2.37914
-0.133962
-0.420635
-1.50516
-2.30365
-4.83073
-0.966437
-4.98902
-0.140259
0.241677
-1.29742
-5.10172
-0.27181
-1.43808
-2.21231
0.0137229
-1.87379
0.109196
-4.86758
-0.176805
-4.97267
-6.4004
-1.05439
0.20135
-1.14576
-6.16472
-3.04465
-1.32171
-3.08346
-4.78356
-0.684355
-6.43254
-1.91825
-0.869265
0.173786
-5.5678
-2.30298
-0.878155
-2.87134
-0.607521
-2.2025
-1.91198
-1.2529
-2.8168
-2.50618
-0.956562
0.195655
-1.75965
-0.117346
-2.49723
-1.37112
-0.281184
-2.16968
-2.37497
-0.26121
-0.261415
0.195693
-2.60006
-1.17834
-1.71548
-0.0592167
-1.56637
-1.73727
-3.73059
-0.910946
-0.464323
-0.902063
-1.22379
-0.786443
-4.50367
-4.28355
-5.27403
-3.15002
0.135377
-0.161903
-0.0905774
-2.16574
-1.78204
-1.87487
-5.67046
-2.73596
-1.04121
-0.360977
-0.923415
-1.9983
-5.14768
0.227039
-0.384073
-2.33317
-0.645266
-2.71088
-3.16196
-6.03627
-2.10909
0.0530636
-5.76995
-3.24496
-1.92533
-1.12482
-0.776418
-2.47758
-0.570545
0.134573
-2.83178
-0.0467059
-0.114727
-2.66333
-2.30612
-0.79292
-0.451029
-0.0621754
-0.20787
-0.183137
-1.99412
-0.122701
-0.766692
-0.833919
-4.00653
-3.04731
-2.57634
-0.542625
-0.903705
-1.36142
-1.346
-2.33392
-1.21404
-0.475304
-0.57397
-0.323233
-2.06473
-1.39084
-2.55367
0.182767
-0.660728
-3.11947
-5.56064
-0.378073
-0.242871
-3.56558
-2.25651
-4.9977
-0.0804049
-5.72107
-2.26184
-0.300982
-4.15354
-0.894813
-3.02212
-2.22021
-0.416661
-0.0250012
-2.79598
-2.89489
-0.882809
0.221148
-0.893464
-1.70319
-5.75348
-0.705504
-1.09808
-1.53345
-3.02873
-2.65571
-3.02414
-2.0396
0.166424
-2.21988
-6.10351
0.120559
-1.06775
-0.206119
-0.432116
-6.93559
-1.6067
-0.46933
-5.51059
-1.23527
-1.98214
-1.23216
-0.906174
-0.117211
-1.09833
-0.628315
-6.0061
-2.1081
-3.3903
0.170198
-2.93081
-1.61304
-2.62692
-1.87667
-1.80938
-0.202762
-1.10864
-0.43106
-1.41968
-2.16846
-4.9973
-0.931578
0.155609
-0.61528
-1.94875
-0.234113
-0.244757
0.21909
-0.43365
-0.760812
-1.9988
-1.29091
-0.348346
-3.0789
-6.69973
-0.281233
-1.06719
0.10666
-0.68218
-7.08403
-0.244355
0.011659
-5.1264
0.253732
-5.16912
-0.647397
-0.854017
-0.595531
-6.57407
-3.40289
-0.623123
-0.218985
0.226055
-3.8943
0.247135
-1.71747
-2.48422
-4.8481
-0.469852
-0.865146
-3.64041
-0.605504
-0.690549
0.106592
-0.256303
-2.52777
-1.46413
-0.271093
-1.93605
-0.157726
-1.91032
-1.85977
-0.14875
-0.815251
-1.70747
-0.63677
-0.493493
-1.98033
0.206924
-3.94018
-0.644926
-1.12564
-0.177515
-7.59249
-0.607719
-0.27562
-6.80749
-3.39535
-0.359737
-2.92985
-0.675646
-3.80287
0.225249
-0.302617
-1.02489
-3.29582
-0.734407
-1.62693
-7.44821
0.221856
-1.8501
0.21813
-0.50716
0.0150126
-4.19294
-2.00574
-0.693493
-3.52206
0.00469713
-0.455701
-1.44484
-5.27762
-0.637691
-1.92491
-2.98688
-3.83725
-2.74412
-0.739168
-0.500299
-0.835721
-0.554217
-1.00683
-3.33548
0.241596
-0.315546
-6.45048
-0.848357
-0.710433
-1.03207
-4.27206
-6.47796
-0.90438
-6.45941
-5.27833
-0.366907
-7.44742
-0.443109
-6.7245
-1.02921
-3.5703
-0.58779
-7.23929
-0.323774
-4.54305
-1.86718
-0.731826
-0.299469
0.247631
-0.798722
-7.69961
-7.31772
-3.22978
-7.31829
0.140263
-0.341544
-0.689313
-0.547661
-4.9609
-1.31716
-0.783446
-7.53914
-7.93232
-0.480833
0.183266
-0.558164
-0.404226
-4.26086
0.212108
-8.14777
-7.64233
-2.15158
-0.453647
-0.231164
-2.02317
-0.535337
-6.14025
0.202473
-7.83986
-7.46926
0.238069
-3.71998
-0.642688
-1.47643
-0.644378
-0.0342181
0.169826
-3.33769
-7.75268
-3.1246
-6.18167
0.2451
-3.00294
-6.38241
-0.48335
-7.16451
-3.99155
-0.770516
-6.17975
-0.672948
-2.91103
-4.56328
-8.02431
-0.370629
-1.69165
-7.78141
-5.36256
-7.83499
-8.26706
-6.54194
-0.573879
-0.149708
-0.206303
-3.36832
-0.751614
-0.612891
0.252197
-4.80131
-5.55987
0.225353
-2.42952
-2.01377
-3.91248
-5.06345
-0.841841
-4.4158
-0.246076
-7.10758
-5.70734
-6.34104
-4.46499
-3.00668
-0.753019
-7.05632
-2.13967
-0.394037
-0.604193
-2.70264
-0.136671
-5.39359
-2.24103
-8.05391
0.172292
-0.643421
-0.31916
-7.98897
-1.76159
-2.10343
-3.0911
-1.42124
-0.307083
-6.95871
-3.79633
-2.82055
-0.861784
-7.86121
0.225426
-0.610457
-0.251651
-0.745368
0.243338
-5.26077
-0.67027
-0.204775
0.165115
-2.27813
-6.51325
-5.1249
-0.185123
-4.52323
-0.370812
-0.630307
-1.86558
-0.929311
-2.09457
-4.65011
-0.134356
-3.54073
-1.91928
-0.450259
-3.93458
-1.80972
-2.93548
-0.618506
-0.203146
-2.18381
-0.474052
-1.92873
-3.76455
0.227602
-0.666111
-2.37173
-2.79286
-3.20099
-3.30964
-2.40025
-0.754272
-0.279548
-3.92786
-0.789337
-2.52018
-6.31761
-3.71757
-0.447043
-1.82633
-4.11943
-1.88329
-0.849493
-0.655017
-1.74086
0.23242
-2.91787
-0.258625
-4.60453
-1.80719
-4.78676
-0.498835
-0.371179
-2.14151
0.112142
-4.55377
-4.34852
0.050158
-2.55903
-0.147949
-6.34597
-3.72012
-2.13237
-5.02879
-2.0065
-3.82138
-3.88443
-7.88638
-3.74151
-4.38462
-2.75461
-0.506927
-2.01493
-2.39866
0.175286
-6.7738
-2.9148
-2.49916
-3.78323
-6.03226
-5.61867
-0.706868
-6.1795
-2.76046
-2.9391
-2.97392
-1.56856
-4.23799
-6.66296
-0.560998
-2.76033
-6.33304
-3.97555
0.214405
-0.220832
0.117955
-0.740951
-1.41093
-1.75319
-4.26322
-8.03195
-7.97033
-8.05595
-7.56674
-6.21385
-0.293577
-2.82344
-6.00255
-6.75927
-4.23382
-3.95148
-5.42587
0.162129
0.2448
-2.38915
-1.59626
0.2035
-6.38697
-1.00758
-4.09326
0.162351
-2.41279
0.227949
-2.50705
-2.66089
-4.04568
-2.88013
-5.49689
-2.88641
-2.29907
-0.129681
0.238011
-4.6255
-3.66809
-0.889038
-0.921661
-2.48929
-2.10699
-0.850441
-3.28539
-2.31536
-0.197602
-4.23789
-2.69556
-0.589057
-2.6396
-0.56961
-4.87732
-4.17609
-6.77272
-0.216544
-4.93174
-4.11124
-2.87345
-4.79381
-3.0493
-4.58256
-4.20409
-1.43549
-0.315915
-3.34157
-1.10351
-0.285611
-1.55296
-1.94915
-5.97592
-2.03928
-2.216
-5.89911
-0.451955
-4.35585
-1.48908
-1.36693
-3.40447
0.203815
-1.44381
-0.60959
-2.73847
-5.91735
-4.34286
-3.58807
-0.84312
-2.77945
0.249736
0.23173
-0.0352631
-0.515475
-4.65367
-6.09481
-6.68302
-3.80393
0.181276
-6.49766
-0.504697
0.247385
-0.384415
-0.921482
-3.50126
-0.243725
-0.292299
-4.49677
-6.87654
-3.53979
-0.537422
-1.38415
-5.55994
-0.325983
-0.447768
-0.636213
-4.43566
-4.0388
-0.450404
-3.05081
-3.27592
-1.14069
0.253491
-3.42547
-0.392259
-2.07645
-2.1346
0.251544
-0.431994
-0.984724
0.249446
-4.40414
-0.403341
-5.08189
-6.18108
-5.54674
-5.39243
-2.23791
-3.69432
-2.57199
0.250284
-4.63261
-7.24757
-5.65406
-4.78954
-5.73599
-4.11758
-5.66021
-1.14201
0.256532
0.0826288
-5.58249
-1.08533
-4.28255
-1.04846
0.220673
-5.43073
-5.36494
-7.50747
-2.4249
-3.8674
-2.7086
-0.420925
-4.53763
0.254248
-4.74394
-7.25456
-1.57057
-5.42103
-4.33243
-3.36789
-1.23774
-1.24665
-0.982072
-4.75369
-5.60979
-2.82102
-5.41095
0.251681
-6.86438
0.252779
-5.22706
-0.744761
-2.65211
-7.45523
-0.560155
-0.426453
-6.92591
-1.11186
-5.69929
-5.76614
-0.423668
-5.16315
-0.364835
-5.69832
-0.983849
-5.18435
-0.291577
-3.75314
-5.94884
-0.11028
-1.05028
-5.25708
-3.94518
-0.531845
-0.375946
-0.252912
-0.558566
-5.66093
-0.456811
-2.60267
-1.03267
-5.81415
-0.324069
-0.453813
-6.54322
-2.66221
-6.6796
0.239136
-5.86019
-5.91289
-6.04856
-6.06055
-6.22764
-0.544341
-2.27418
-0.419656
-1.16671
-5.86729
-0.413548
-6.13976
-6.13769
-5.93057
-5.89508
-1.01221
-2.23693
0.206644
-2.48008
0.249496
0.24494
-6.39471
-6.34637
-6.47518
-5.97784
-6.18939
-6.48255
-0.332454
-6.3701
-2.4084
-6.51462
-2.71726
-6.24204
-1.30637
-5.58347
-5.08178
-2.47512
-3.20563
-5.284
-2.22895
-5.3566
-5.23052
-0.76648
-2.55673
-1.73178
-4.5736
-1.09739
0.255219
-1.41925
-3.34272
-6.41593
-3.83496
-1.2365
-1.17643
-5.37954
-8.00606
-6.58403
-2.20704
-5.33422
-6.03678
-2.44051
-8.06439
-3.47329
-6.34769
-8.09817
-7.60877
-3.30306
-7.89104
-2.62803
-4.63446
-2.88631
0.245192
-4.38994
-3.75928
-0.839641
-1.17734
-5.51064
-2.55741
-1.5047
0.201056
-1.6559
-0.722441
-2.90561
0.177096
-1.02782
-1.15431
-4.70101
0.0642017
-2.36956
-2.82022
-3.28831
-2.69555
-3.22974
-5.8998
-2.42304
-2.49018
-1.58613
-1.55941
0.253727
-4.38698
-5.11259
-0.452343
-0.643009
0.241021
-3.48435
-3.09744
-1.13104
-2.7029
-2.78635
-0.0442166
-0.521762
-3.85826
-8.25839
-6.45144
0.251805
-0.509235
-4.024
0.252422
0.252834
-2.88582
-2.25601
-1.23459
-3.10408
-1.62187
-0.988746
0.14819
-5.18229
-2.01124
-1.10892
-2.68169
-0.926156
-5.54474
-0.792485
-0.910046
-0.786823
-0.371277
-3.19437
0.253744
-0.440675
-3.81171
0.240049
0.092161
-2.2531
-1.13423
-1.10644
-6.40211
-1.41599
-4.20995
-0.660684
-7.13022
-3.4557
0.113044
-1.92703
-0.702781
-1.19843
-5.73276
-0.623926
-1.49751
-0.742836
-1.2677
-4.34416
-2.86729
-1.25574
-0.786488
-3.4567
-0.79901
-0.941441
-0.322274
-2.3885
-6.28213
-6.35759
-0.319078
-4.13181
-0.919223
-3.22296
-0.705426
-1.73574
-5.38558
-0.935783
-1.17577
-1.2463
-5.81393
-1.84001
-3.56385
-0.572965
-5.38379
-2.06092
-1.207
-2.04009
0.096283
-0.312452
-0.805186
-0.765372
-0.55773
-0.787857
-5.29498
-3.45403
-5.6341
-0.646964
-5.54018
-0.44041
0.23791
-1.02423
-0.843337
0.251454
-2.95259
-0.566321
-1.82838
-3.37473
-0.979374
-2.1183
-0.904609
-3.83865
-2.17972
0.0926257
-0.562265
-0.837038
-5.27366
-0.394396
-0.465101
-0.598557
-1.96396
0.238048
0.233485
-1.29498
-0.230556
-4.30666
-3.64695
-0.887889
0.234431
-0.764538
-0.507966
-0.560587
-1.16589
-0.607423
-1.08518
-1.6889
0.246062
-0.550788
-2.20026
-5.74792
-1.77463
-0.871612
-0.678409
-0.328009
0.249822
-0.0918075
-5.7409
-0.176747
-2.83638
-1.66659
-0.781331
-4.11185
-1.73777
-5.15562
-0.881601
-0.233226
-6.90552
-0.667628
0.231656
-0.346177
-3.08387
0.233792
0.23128
-0.507026
0.167986
-1.33453
-1.18392
0.205478
-0.534418
0.242103
-0.465833
-0.798818
-0.701727
-0.783329
-0.557425
-0.886816
-1.23624
-2.00719
-1.15325
-0.397195
-5.33226
-0.486262
-1.22533
-6.44462
-0.725381
-0.363822
0.253973
0.246906
-0.518279
-0.548964
-5.00051
-0.648336
-2.65639
-0.957226
-5.83206
-0.597325
-2.4835
-0.531856
-0.745382
-1.2945
-1.10079
-0.886522
-3.46486
-1.38024
-0.514876
-0.618259
-5.833
-0.662728
-0.718714
-2.59765
-7.07983
-2.25507
0.2053
-6.70462
0.241872
-7.24323
-5.61999
0.243621
-0.552434
-0.710798
-1.45646
-3.20667
-1.64477
-0.97091
-6.60302
-1.00115
-2.59943
-7.00896
-2.567
-1.1867
-3.76711
-0.502949
-0.580607
-5.04649
-0.646253
-0.0365707
-0.91758
-2.11653
-7.40051
0.254915
-2.01361
-5.70153
-0.960931
-0.941708
-0.781719
-2.04966
0.0694516
0.0195186
0.177683
-0.951223
-2.16233
-2.42858
-0.897605
-0.483626
-2.69776
0.161048
-7.25612
-1.07316
-0.746363
-2.50277
-0.915701
-4.00382
-2.33718
-2.40399
-1.05261
-1.89541
-3.56206
-2.97539
-1.05794
0.249828
0.239226
-0.941901
-0.905351
-7.01452
-0.596884
-1.36249
-7.87292
-2.53536
-0.655163
-2.09182
-7.67822
-6.95049
-3.81777
-1.04552
-4.7853
-0.981499
-1.03137
-1.2657
-1.42183
-1.88887
-4.23336
-1.22288
-1.33322
-0.401119
-1.43641
-7.79835
-0.989777
-1.8452
-3.6418
0.103098
-0.00573654
0.243175
0.192269
-0.0859
-0.890989
-5.80541
-1.1488
-6.36848
0.255061
-4.78899
-1.17574
-1.64775
-2.32653
-0.153578
-7.97674
0.236861
-1.1628
-2.39186
-4.15727
0.052848
0.0355348
-0.996174
-0.852868
-5.01291
-1.6869
0.074812
-0.362384
-1.61991
0.100454
0.25481
-4.30519
-1.41095
-4.32673
-1.56151
-1.54787
0.116762
-1.78095
-1.47559
-3.91465
-1.16162
0.00580056
-1.18324
-1.22321
-0.771004
-7.75813
-0.424532
0.112494
-0.892958
-3.09913
-7.87063
-5.78622
-0.266093
-2.29547
-0.927747
0.0352542
0.210423
-0.92437
0.137602
-2.48369
-0.598885
0.127835
-1.84379
-0.69102
-0.322311
-2.36864
-4.40582
-4.41396
-4.38043
-2.74662
0.126838
-4.49097
-6.88106
0.190583
-3.96765
-1.14129
0.128183
-1.32623
0.206912
-1.79661
-0.818134
-1.34194
0.138977
-0.263327
0.0558984
-1.51751
0.038617
0.0737511
0.192045
-1.13218
-0.600688
0.0730716
-2.41868
-1.41293