<VTKFile type="UnstructuredGrid" version="0.1" byte_order="LittleEndian">
  <UnstructuredGrid>
    <Piece NumberOfPoints="6877" NumberOfCells="13283">
      <Points>
        <DataArray type = "Float64" NumberOfComponents="3" format="ascii">
3.5 2.00105 0.0 
3.5 1.99895 0.0 
0 0 0.0 
12 0 0.0 
0 4 0.0 
12 4 0.0 
6.29197 2.31448 0.0 
4.88983 1.8112 0.0 
2.93078 1.94682 0.0 
2.38612 0.661722 0.0 
3.46822 2.00422 0.0 
3.4492 2.00609 0.0 
9.75011 0.429191 0.0 
2.97438 1.93934 0.0 
3.4284 2.00811 0.0 
3.08807 1.95055 0.0 
3.40943 2.00992 0.0 
4.75094 2.06044 0.0 
3.39055 2.01171 0.0 
10.5646 0.785159 0.0 
3.37064 2.01358 0.0 
4.93235 2.1706 0.0 
4.04851 2.15296 0.0 
2.34635 1.28411 0.0 
3.3441 2.01602 0.0 
5.28184 3.7481 0.0 
3.32932 2.01737 0.0 
3.31416 2.01873 0.0 
3.25318 2.34864 0.0 
3.30101 2.01991 0.0 
9.77738 3.11046 0.0 
5.73506 3.61003 0.0 
3.28104 2.02167 0.0 
11.443 2.87979 0.0 
3.26112 2.02341 0.0 
1.83651 2.92434 0.0 
9.65962 3.11161 0.0 
7.9447 1.72766 0.0 
3.23123 2.02597 0.0 
3.26902 2.03431 0.0 
8.28155 1.27045 0.0 
3.21131 2.02765 0.0 
3.20135 2.02848 0.0 
3.18889 2.02951 0.0 
3.17635 2.03053 0.0 
0.759789 2.22952 0.0 
3.2359 2.23123 0.0 
3.16034 2.03183 0.0 
3.15052 2.03262 0.0 
0.628639 2.20506 0.0 
3.02628 3.10187 0.0 
3.13957 2.03349 0.0 
2.48103 2.13794 0.0 
3.1296 2.03426 0.0 
6.48933 2.22857 0.0 
3.12171 2.03487 0.0 
9.20168 0.106999 0.0 
3.11166 2.03562 0.0 
7.32217 3.87968 0.0 
3.10169 2.03635 0.0 
4.95808 1.80956 0.0 
3.0922 2.03704 0.0 
9.87757 2.91797 0.0 
3.08224 2.03774 0.0 
2.51759 1.97526 0.0 
3.07177 2.03847 0.0 
3.05986 2.03927 0.0 
3.04983 2.03993 0.0 
2.14662 1.23635 0.0 
3.03985 2.04058 0.0 
4.30691 0 0.0 
3.02987 2.04121 0.0 
8.66013 2.72876 0.0 
3.0199 2.04182 0.0 
3.00992 2.04242 0.0 
2.76023 0.841902 0.0 
3.00193 2.04289 0.0 
2.24493 1.09945 0.0 
1.99136 0.46596 0.0 
2.98711 2.04373 0.0 
7.17862 1.01418 0.0 
2.97747 2.04427 0.0 
3.54278 3.1011 0.0 
2.96958 2.04469 0.0 
3.47062 0 0.0 
2.96201 2.04509 0.0 
3.09546 2.05186 0.0 
2.95043 2.04569 0.0 
9.9963 2.9126 0.0 
2.94005 2.0462 0.0 
2.93089 2.04665 0.0 
4.91933 1.88006 0.0 
6.76745 0.505108 0.0 
2.92007 2.04715 0.0 
9.25464 2.64568 0.0 
2.91208 2.04752 0.0 
4.90901 0.0899404 0.0 
10.8572 2.96282 0.0 
2.8996 2.04807 0.0 
2.8946 2.04828 0.0 
8.13323 0.520161 0.0 
2.88961 2.04847 0.0 
2.89001 0.86037 0.0 
2.88461 2.04866 0.0 
2.88003 2.04882 0.0 
2.23871 2.54735 0.0 
7.59271 1.49236 0.0 
2.87462 2.04899 0.0 
2.88743 1.9174 0.0 
2.86962 2.04914 0.0 
5.43045 0.911049 0.0 
9.85454 2.46277 0.0 
2.85755 2.04945 0.0 
2.86213 2.04934 0.0 
4.93409 3.70159 0.0 
11.0785 1.20913 0.0 
2.85213 2.04957 0.0 
7.84629 2.19717 0.0 
2.84714 2.04967 0.0 
5.25 4 0.0 
2.84214 2.04975 0.0 
2.83714 2.04983 0.0 
3.98751 2.29354 0.0 
2.7008 2.0473 0.0 
2.83214 2.04989 0.0 
2.82714 2.04994 0.0 
2.76836 2.05294 0.0 
2.81965 2.04999 0.0 
2.82215 2.04997 0.0 
2.91523 2.08308 0.0 
7.53866 2.98361 0.0 
2.81215 2.05001 0.0 
2.80472 2.05001 0.0 
2.79507 2.04997 0.0 
2.79965 2.05 0.0 
5.55584 1.18487 0.0 
9.53601 0 0.0 
2.78966 2.04993 0.0 
4.87696 0.584585 0.0 
2.78466 2.04988 0.0 
9.45522 2.67434 0.0 
2.77966 2.04982 0.0 
5.94462 0.42068 0.0 
2.77466 2.04975 0.0 
9.56463 0.322334 0.0 
2.77216 2.04971 0.0 
2.76716 2.04961 0.0 
2.76467 2.04956 0.0 
4.80272 2.10724 0.0 
2.75967 2.04946 0.0 
2.75467 2.04934 0.0 
8.49184 0 0.0 
2.74967 2.0492 0.0 
8.33649 2.6594 0.0 
2.74468 2.04906 0.0 
9.51856 2.75585 0.0 
2.73968 2.04891 0.0 
2.73469 2.04874 0.0 
9.41426 2.76593 0.0 
2.73219 2.04865 0.0 
2.72719 2.04847 0.0 
2.72261 2.04829 0.0 
6.04432 2.99452 0.0 
2.01202 0.969728 0.0 
2.7172 2.04806 0.0 
8.83747 2.67733 0.0 
5.55013 0.89231 0.0 
2.71221 2.04785 0.0 
1.98904 2.59055 0.0 
2.70472 2.0475 0.0 
2.67763 2.04605 0.0 
2.69045 2.04677 0.0 
2.69475 2.047 0.0 
8.13831 0.956352 0.0 
3.25897 1.94151 0.0 
2.68477 2.04646 0.0 
3.21099 1.75099 0.0 
8.08707 1.03905 0.0 
2.67479 2.04588 0.0 
9.04251 2.70224 0.0 
2.66978 2.04558 0.0 
2.6648 2.04526 0.0 
4.62772 3.59238 0.0 
2.65981 2.04494 0.0 
8.79605 3.01706 0.0 
2.65482 2.04461 0.0 
9.48107 3.02385 0.0 
2.64741 2.04409 0.0 
8.98557 2.77888 0.0 
7.99404 0.835602 0.0 
2.63986 2.04355 0.0 
4.90012 2.23824 0.0 
2.63239 2.04298 0.0 
8.27174 0.700244 0.0 
2.62498 2.0424 0.0 
8.23459 1.16471 0.0 
2.62242 2.0422 0.0 
8.44244 0.812526 0.0 
2.61495 2.04158 0.0 
9.08968 2.78231 0.0 
2.60755 2.04095 0.0 
9.07597 0.534318 0.0 
7.02001 2.11165 0.0 
2.60001 2.04028 0.0 
9.42673 3.11425 0.0 
2.58798 2.03916 0.0 
2.59254 2.03959 0.0 
2.32706 2.06736 0.0 
2.62832 0.835119 0.0 
8.97315 2.9414 0.0 
2.58259 2.03864 0.0 
8.49499 2.49978 0.0 
9.42064 2.93754 0.0 
2.57513 2.0379 0.0 
2.57264 2.03764 0.0 
2.57016 2.03735 0.0 
2.56768 2.03702 0.0 
2.56522 2.03662 0.0 
2.56276 2.03616 0.0 
2.56031 2.03565 0.0 
2.55788 2.03508 0.0 
2.55546 2.03446 0.0 
2.55305 2.03379 0.0 
2.55066 2.03307 0.0 
2.54828 2.0323 0.0 
2.54592 2.03148 0.0 
2.54357 2.03062 0.0 
2.54124 2.02971 0.0 
2.53893 2.02876 0.0 
2.53664 2.02777 0.0 
2.53436 2.02674 0.0 
2.5321 2.02567 0.0 
2.52986 2.02456 0.0 
2.52764 2.02342 0.0 
2.52544 2.02224 0.0 
2.52325 2.02103 0.0 
2.52108 2.01978 0.0 
2.51893 2.01851 0.0 
2.5168 2.0172 0.0 
2.51469 2.01587 0.0 
2.51259 2.01451 0.0 
2.51052 2.01312 0.0 
2.50845 2.0117 0.0 
2.50644 2.01022 0.0 
2.50456 2.00858 0.0 
2.50283 2.00678 0.0 
2.50139 2.00474 0.0 
2.50037 2.00246 0.0 
2.5 2 0.0 
2.50037 1.99754 0.0 
2.50139 1.99526 0.0 
2.50283 1.99322 0.0 
2.50456 1.99142 0.0 
2.50644 1.98978 0.0 
2.50845 1.9883 0.0 
2.51052 1.98688 0.0 
2.51259 1.98549 0.0 
2.51469 1.98413 0.0 
2.5168 1.9828 0.0 
2.51893 1.98149 0.0 
2.52108 1.98022 0.0 
2.52325 1.97897 0.0 
2.52544 1.97776 0.0 
2.52764 1.97658 0.0 
2.52986 1.97544 0.0 
2.5321 1.97433 0.0 
2.53436 1.97326 0.0 
2.53664 1.97223 0.0 
2.53893 1.97124 0.0 
2.54124 1.97029 0.0 
2.54357 1.96938 0.0 
2.54592 1.96852 0.0 
2.54828 1.9677 0.0 
2.55066 1.96693 0.0 
2.55305 1.96621 0.0 
2.55546 1.96554 0.0 
2.55788 1.96492 0.0 
2.56031 1.96435 0.0 
2.56276 1.96384 0.0 
2.56522 1.96338 0.0 
2.56768 1.96298 0.0 
2.57016 1.96265 0.0 
2.57264 1.96236 0.0 
2.57513 1.9621 0.0 
2.58259 1.96136 0.0 
9.5024 0.214919 0.0 
2.58998 1.96065 0.0 
2.70265 2.05767 0.0 
2.59503 1.96018 0.0 
2.60001 1.95972 0.0 
6.22005 2.37044 0.0 
2.60499 1.95928 0.0 
2.60997 1.95884 0.0 
6.91081 2.08293 0.0 
2.61495 1.95842 0.0 
2.61993 1.95801 0.0 
4.98986 2.23313 0.0 
2.62491 1.9576 0.0 
2.62989 1.95721 0.0 
6.98955 2.0142 0.0 
2.63488 1.95683 0.0 
2.63986 1.95645 0.0 
2.64485 1.95609 0.0 
4.29571 2.84886 0.0 
2.64983 1.95574 0.0 
2.6623 1.9549 0.0 
2.65482 1.95539 0.0 
2.65981 1.95506 0.0 
8.17613 1.24546 0.0 
8.34154 0.994029 0.0 
2.66729 1.95458 0.0 
11.2956 1.25205 0.0 
8.33045 1.37709 0.0 
2.67228 1.95427 0.0 
2.67727 1.95397 0.0 
6.22457 1.68412 0.0 
2.68475 1.95354 0.0 
6.53439 2.18344 0.0 
2.69217 1.95314 0.0 
11.1454 3.21 0.0 
2.69723 1.95288 0.0 
2.69973 1.95275 0.0 
5.1041 2.07457 0.0 
2.70715 1.95239 0.0 
4.78796 1.94418 0.0 
3.36542 2.27614 0.0 
2.71221 1.95215 0.0 
2.7172 1.95194 0.0 
4.87885 0.385019 0.0 
2.7222 1.95173 0.0 
9.88084 4 0.0 
2.72719 1.95153 0.0 
7.13224 4 0.0 
3.45556 2.94651 0.0 
2.73219 1.95135 0.0 
2.73718 1.95118 0.0 
4.31319 2.91736 0.0 
4.37834 2.58242 0.0 
2.74218 1.95102 0.0 
5.3774 1.70986 0.0 
2.74967 1.9508 0.0 
2.76007 1.95054 0.0 
2.7571 1.9506 0.0 
5.0377 2.08673 0.0 
1.27321 0 0.0 
2.76467 1.95043 0.0 
2.76966 1.95034 0.0 
8.3709 3.05716 0.0 
2.77216 1.95029 0.0 
2.77716 1.95021 0.0 
2.77966 1.95018 0.0 
2.78466 1.95012 0.0 
2.79209 1.95005 0.0 
5.03873 1.95058 0.0 
2.79715 1.95001 0.0 
4.50508 0.761179 0.0 
1.92798 1.35122 0.0 
2.80215 1.94999 0.0 
2.80715 1.94998 0.0 
3.11163 0.902386 0.0 
2.81215 1.94999 0.0 
2.81715 1.95 0.0 
7.34797 1.2917 0.0 
6.537 2.04355 0.0 
5.22922 3.62733 0.0 
2.82215 1.95003 0.0 
2.82714 1.95006 0.0 
2.82964 1.95009 0.0 
3.65447 2.89863 0.0 
2.83707 1.95017 0.0 
2.84464 1.95029 0.0 
2.84964 1.95038 0.0 
4.36192 2.87225 0.0 
2.85463 1.95048 0.0 
5.01917 1.52083 0.0 
5.09414 1.88439 0.0 
2.86213 1.95066 0.0 
2.86713 1.95079 0.0 
5.46984 2.96172 0.0 
2.87212 1.95093 0.0 
2.87712 1.95109 0.0 
5.10731 0.592868 0.0 
2.88211 1.95125 0.0 
6.6677 2.28536 0.0 
2.88711 1.95143 0.0 
6.7031 3.20393 0.0 
2.8921 1.95162 0.0 
3.26651 1.95327 0.0 
2.8971 1.95183 0.0 
5.24929 1.82803 0.0 
2.90417 1.95213 0.0 
2.91208 1.95248 0.0 
5.14871 1.60688 0.0 
2.92207 1.95294 0.0 
6.34696 0.859977 0.0 
2.93157 1.95339 0.0 
1.73985 0 0.0 
2.94154 1.95387 0.0 
2.95152 1.95437 0.0 
4.6447 0.588699 0.0 
2.96201 1.95491 0.0 
5.86706 3.80051 0.0 
2.9715 1.95541 0.0 
2.99932 0.894603 0.0 
2.98147 1.95595 0.0 
0.966707 1.21788 0.0 
2.99145 1.95651 0.0 
5.25744 2.73845 0.0 
3.00193 1.95711 0.0 
2.90458 2.09921 0.0 
3.01143 1.95767 0.0 
8.24552 3.03733 0.0 
3.02139 1.95827 0.0 
9.01597 0.640815 0.0 
3.03137 1.95889 0.0 
6.49334 3.12353 0.0 
3.04135 1.95952 0.0 
3.24185 1.07672 0.0 
3.05132 1.96016 0.0 
5.98994 3.59968 0.0 
3.0618 1.96086 0.0 
7.48571 1.4477 0.0 
3.07177 1.96153 0.0 
0.769062 1.4551 0.0 
3.08126 1.96219 0.0 
2.3793 1.37189 0.0 
3.09172 1.96293 0.0 
3.09837 1.96341 0.0 
5.34521 2.79577 0.0 
2.4185 2.51185 0.0 
3.11166 1.96438 0.0 
12 0.992258 0.0 
3.12114 1.96509 0.0 
3.1311 1.96585 0.0 
6.58444 2.36799 0.0 
3.14156 1.96667 0.0 
12 1.23795 0.0 
3.15104 1.96742 0.0 
5.75019 4 0.0 
6.6917 2.37881 0.0 
3.17146 1.96907 0.0 
6.59107 2.00719 0.0 
3.18336 1.97004 0.0 
6.42434 2.17873 0.0 
3.20135 1.97152 0.0 
3.22072 1.97314 0.0 
6.86225 2.24295 0.0 
7.62222 1.99763 0.0 
3.23123 1.97403 0.0 
6.44308 2.27009 0.0 
3.24555 1.97525 0.0 
8.58402 0.30847 0.0 
3.26112 1.97659 0.0 
6.05132 2.47649 0.0 
3.12043 1.8943 0.0 
3.28104 1.97833 0.0 
5.46822 0.402987 0.0 
3.68423 0 0.0 
3.30038 1.98003 0.0 
8.26583 1.45566 0.0 
5.80058 3.89624 0.0 
3.31787 1.9816 0.0 
8.07991 3.65545 0.0 
3.33233 1.9829 0.0 
8.37767 1.48423 0.0 
8.68938 1.7583 0.0 
3.35073 1.98458 0.0 
1.50522 0 0.0 
3.37064 1.98642 0.0 
1.04781 0 0.0 
11.6151 4 0.0 
3.39055 1.98829 0.0 
8.22608 1.63221 0.0 
8.95476 0.531401 0.0 
[...]
<PointData>
  <DataArray type = "Float64" Name="BLMLevelSetLayer1" format="ascii">
0.283532
0.283532
-2.91615
-8.44835
-2.91615
-8.44835
-2.52598
-1.11892
0.277014
-1.03041
0.283532
0.283534
-6.16069
0.26733
0.283532
0.271447
0.283533
-0.96882
0.283532
-6.88456
0.283532
-1.15881
-0.285625
-0.429199
0.283532
-2.21189
0.283532
0.283532
-0.0398376
0.283534
-6.09113
-2.47043
0.283532
-7.70792
0.283532
-0.849786
-5.9754
-4.16944
0.283532
0.27199
-4.5532
0.283532
0.283532
0.283532
0.283533
-1.47251
0.0786044
0.283533
0.283533
-1.5999
-0.775162
0.283532
0.160201
0.283532
-2.71445
0.283532
-5.72385
0.283532
-3.97537
0.283532
-1.1868
0.283532
-6.15961
0.283532
0.277414
0.283532
0.283532
0.283532
-0.549051
0.283532
-1.87214
0.283532
-4.92766
0.283532
0.283532
-0.824915
0.283532
-0.636232
-1.3181
0.283531
-3.52462
0.283531
-0.8154
0.283531
-1.7038
0.283532
0.268509
0.283532
-6.27641
0.283532
0.283533
-1.14077
-3.30921
0.283532
-5.5071
0.283532
-2.08915
-7.13627
0.283528
0.283529
-4.57996
0.283528
-0.807111
0.283528
0.28353
-0.314763
-3.84041
0.283528
0.249509
0.283528
-1.93236
-6.08776
0.283528
0.283532
-1.94098
-7.336
0.283533
-4.06718
0.283527
-2.37322
0.283533
0.283527
-0.284992
0.283533
0.283532
0.283527
0.280223
0.283528
0.283532
0.24786
-3.87293
0.283533
0.283529
0.283529
0.283528
-1.92763
-6.07486
0.283528
-1.69041
0.283528
-5.70963
0.283528
-2.6263
0.283528
-6.00859
0.283532
0.283527
0.283528
-1.0235
0.283528
0.283528
-5.09367
0.283528
-4.59756
0.283528
-5.78217
0.283528
0.283528
-5.67998
0.283532
0.283527
0.283533
-2.44786
-0.847717
0.283527
-5.09661
-2.04621
0.283532
-0.494187
0.283529
0.28353
0.283531
0.283529
-4.47051
0.248767
0.283529
0.0629518
-4.4029
0.283529
-5.30316
0.283529
0.283529
-1.66688
0.283529
-5.1091
0.283529
-5.78436
0.283528
-5.25691
-4.35864
0.283528
-1.13654
0.283532
-4.66178
0.283529
-4.52399
0.283532
-4.79931
0.283529
-5.36048
0.283528
-5.48158
-3.23821
0.283528
-5.74684
0.283529
0.283532
0.0982968
-0.836306
-5.26981
0.283532
-4.7363
-5.71071
0.283522
0.283532
0.28345
0.283415
0.283445
0.283532
0.28345
0.283423
0.283451
0.283532
0.283457
0.283433
0.283458
0.283532
0.283464
0.283442
0.283465
0.283532
0.283471
0.283452
0.283473
0.283532
0.283477
0.28346
0.283479
0.283532
0.283483
0.283463
0.283486
0.283532
0.283178
0.28302
0.283098
0.283532
0.282519
0.282145
0.282519
0.283532
0.283098
0.28302
0.283178
0.283532
0.283486
0.283463
0.283483
0.283532
0.283479
0.28346
0.283477
0.283532
0.283473
0.283452
0.283471
0.283532
0.283465
0.283442
0.283464
0.283532
0.283458
0.283433
0.283457
0.283532
0.283451
0.283423
0.28345
0.283532
0.283445
0.283415
0.28345
0.283532
0.283522
0.283532
-5.97838
0.283529
0.273272
0.283528
0.283529
-2.46149
0.283528
0.283529
-3.12826
0.283528
0.283529
-1.22429
0.283528
0.283529
-3.20604
0.283528
0.283529
0.283529
-0.8792
0.283529
0.283533
0.283529
0.283529
-4.45291
-4.6612
0.283528
-7.54777
-4.58678
0.283532
0.283528
-2.45917
0.283529
-2.75634
0.283533
-7.45684
0.283528
0.283529
-1.32226
0.283528
-1.00559
0.0225552
0.283532
0.283527
-1.8392
0.283533
-6.40309
0.283527
-3.86242
-0.653255
0.283532
0.283527
-0.941577
-0.769783
0.283532
-1.616
0.283528
0.28353
0.283527
-1.25655
-2.05698
0.283528
0.283528
-4.70055
0.283532
0.283527
0.283528
0.283528
0.283533
-1.25596
0.283527
-1.31091
-0.578339
0.283532
0.283527
-0.775932
0.283533
0.283528
-3.62889
-2.75377
-2.09027
0.283532
0.283527
0.283528
-0.627246
0.283527
0.283528
0.283528
-0.941987
0.283528
-1.3091
-1.31472
0.283532
0.283527
-1.90808
0.283533
0.283527
-1.852
0.283533
-2.8969
0.283527
-3.13798
0.283533
0.259833
0.283527
-1.47408
0.283531
0.283532
-1.41115
0.283532
-2.78281
0.283532
-1.84354
0.283532
0.283532
-1.53282
0.283532
-2.68986
0.283532
-0.777297
0.283532
-1.43681
0.283532
-1.62234
0.283532
0.232224
0.283532
-4.57381
0.283532
-5.39718
0.283532
-2.91335
0.283532
-0.611584
0.283532
-2.67542
0.283532
-3.74012
0.283532
-1.53105
0.283532
-0.335671
0.283532
0.283531
-1.72554
-0.213104
0.283532
-8.27587
0.283532
0.283532
-2.82266
0.283532
-8.25047
0.283532
-2.72631
-2.93045
0.283532
-2.80754
0.283532
-2.6462
0.283532
0.283533
-3.08741
-3.83869
0.283532
-2.67182
0.283532
-5.07417
0.283532
-2.31171
0.212994
0.283532
-2.25043
-1.72383
0.283532
-4.51316
-2.69714
0.283532
-4.58603
0.283532
-4.62122
-4.91143
0.283532
-1.94186
0.283532
-2.18361
-8.07413
0.283532
-4.45676
-5.3652
0.283532
-5.01038
0.283532
-1.34037
0.283532
-2.11857
-5.15411
0.283532
-2.21181
-8.30839
-8.25067
-2.72476
-2.54253
-1.75303
-4.08809
-6.07152
-6.5938
-1.76472
-8.39471
-5.04415
-8.348
-1.19071
-0.50133
-2.17833
-1.95715
-2.06517
-0.348379
-4.59034
-4.04477
-4.34689
-0.779109
-6.79495
-2.72453
-7.2157
-7.62582
-3.78772
-4.31708
-0.764236
-2.02824
-0.215002
-6.82198
0.258829
-7.00199
-0.300928
-0.124046
-6.57928
-0.772536
-7.93705
-0.992061
-8.25195
-0.323687
-3.13848
-0.425788
-1.6676
-7.21058
-8.21652
-8.21847
-8.20518
-1.78423
-1.73099
-2.54365
-2.83392
-2.03685
-8.28145
-0.382337
-1.9516
-7.41906
-8.07054
-5.55059
-3.28206
-8.30774
-8.34762
-8.39453
-7.72011
-1.85149
-1.777
-0.881191
-0.355329
-2.31426
-0.409898
-2.54416
-0.677445
-0.781874
-2.37732
-0.776686
-2.90921
-5.63468
-2.66818
-1.67658
-0.751275
-1.85629
-3.15751
-4.89869
-2.98222
-1.95282
-1.66864
-0.340667
-1.69608
-0.755598
-2.6465
-3.52695
-4.49492
-2.26641
-0.150947
-5.63233
-1.66718
-1.31205
-1.6857
-2.07164
0.193754
-2.76653
-2.26534
-2.54253
-0.834743
-0.745482
-2.21222
-2.3708
-0.982238
-0.786853
-2.72476
-0.408917
-0.149313
-0.196001
-2.11825
-0.741007
-2.76653
-2.22985
-2.21785
-2.22985
-6.21593
-2.32652
-2.40858
-2.51068
-2.6307
-5.55655
0.26186
-1.6455
0.0966159
-0.283735
-0.397871
-7.25194
-2.17629
-0.948012
-2.39533
-0.0798956
0.239582
-2.70223
-2.70635
-0.144686
-4.97655
-1.7414
-0.679627
-5.25492
-5.01679
-2.84452
-0.788923
-0.992924
-7.39383
-1.5673
-0.760905
-2.63394
0.0288259
-0.341488
-6.79262
-6.32371
-0.782286
-4.57024
-1.61157
-0.607273
-4.52302
-1.08189
0.247634
-0.16277
-5.05718
-1.63241
-7.62106
-0.721365
-3.7069
-1.04258
0.210381
-1.4667
-3.8159
-1.62635
-5.74003
-4.4336
-4.92867
-3.09564
0.264822
0.150182
-5.27574
-5.51063
-0.331703
-2.47999
-0.303156
-2.51678
0.199023
-0.745938
-0.996002
-4.98143
-2.92818
-5.02673
-5.15335
-0.524264
-5.04911
-0.755913
0.0791663
-1.52086
-1.73538
-4.99595
-2.69358
-2.48463
-3.07122
-0.491011
0.276614
-4.55129
-4.41204
-2.86439
-0.29059
-1.6543
-4.68428
-0.773176
-0.514823
-2.94008
-0.942668
-0.864862
-2.86517
-4.98949
-4.77195
-4.81538
-0.661862
-2.95408
-4.48292
-4.78834
-0.951301
0.261601
-0.4359
-0.2166
-2.77758
-0.23741
0.230235
-2.87631
-2.83793
-1.65326
-1.71012
-2.70497
-0.838614
0.0690825
-1.79862
-2.50536
-3.65066
-4.685
-3.05222
-4.86496
-2.26552
-4.32324
-2.70184
-0.765095
-0.663464
-4.13459
-4.7973
-2.58465
0.235721
-1.36439
-0.20651
-1.37385
-5.40335
-4.83671
-0.494096
-0.260628
-2.60828
-7.61736
-0.0210697
-1.56988
-0.418603
-4.68305
-1.52939
-4.33524
-2.26734
-2.73389
0.271365
-4.45569
-4.38705
-0.198013
-0.891075
-4.65508
-0.993279
-2.17008
-4.73094
-4.87597
-7.08022
-3.27444
-2.05184
-6.61155
0.214522
-2.48781
-2.65615
-1.30727
-1.13196
-1.27389
-2.3115
-2.53926
-0.5377
-2.66189
0.233234
-0.47982
-8.1853
-0.838794
0.22446
-0.901848
-2.61787
-0.54472
-1.99356
0.257791
-0.501851
-2.6102
-1.20628
-2.56188
-1.7969
-1.62239
-3.15341
0.265844
-0.85717
-2.43763
-0.910009
0.201063
-0.239825
-3.05548
-3.77608
-1.05807
-1.62013
-0.706756
-2.18123
-1.07451
0.243576
-0.901814
-2.94508
-2.53202
0.153841
-1.44678
-0.739752
-2.87994
-0.348258
-1.00833
-2.75169
-2.70988
-2.68086
-1.21478
0.214413
-7.98385
-0.770573
-0.513557
-7.47293
-0.419058
-1.4077
-0.631556
-1.21454
-5.87549
-0.212614
-0.109174
-0.953162
-7.40467
-0.0418864
-7.86019
-3.58867
-7.68926
0.270867
-1.92867
-0.593539
-7.89538
-1.40223
-0.887844
-7.64361
-4.19128
-7.97379
-1.82782
-3.56127
0.276934
-3.5328
-1.09547
-7.85874
-3.23486
-0.516939
-5.83109
-1.26071
-6.2155
0.21545
-0.620422
0.152874
-1.29557
0.210127
-0.584469
-1.02088
-0.487746
-6.78682
-3.31264
-8.12551
-0.864653
-8.14222
-3.29157
-0.330873
0.13583
-0.707907
-4.93674
-4.18816
-2.36161
-1.23822
-2.89289
-5.58112
-2.25625
-2.08342
-1.14423
-4.3092
0.167491
-4.89176
0.257412
-0.549755
-3.08509
-4.10276
-1.47118
-3.38744
0.243401
-0.396346
-4.86644
-1.4499
-2.95224
-3.39383
-2.07051
-1.19015
-1.52854
-1.10926
0.204384
-2.98044
0.257483
0.18712
-1.31752
-3.3599
-1.24008
-3.11592
-4.9476
-1.00358
-0.38351
-0.10721
-0.556653
-3.07309
-1.59455
0.156111
-6.45884
-5.93956
-3.02556
-3.79285
-0.181954
-0.769052
-0.172488
-2.07035
-0.539205
0.0545675
-2.35214
-0.920333
-0.393632
-1.47816
-2.40334
-4.80373
-2.27666
-3.55705
-0.107272
0.211144
-1.27042
-5.07471
-0.812763
-1.41107
0.253379
-0.926917
-1.84679
-4.96163
-4.84058
-0.149802
-4.94567
-0.298982
-0.106957
0.0432044
0.228357
-6.13772
-1.39229
-1.29471
-3.05646
-4.75656
-3.01747
-6.40553
-1.89125
0.24643
0.26876
-0.0801123
-2.27598
0.255473
0.278298
-0.660329
-2.17549
-1.88498
-0.920008
-2.7898
-0.530185
-3.09652
-0.930151
-1.22485
-2.46503
0.223651
-1.34412
-5.07752
-1.50628
-2.34797
-0.234207
-1.72515
-0.254343
-0.842999
-1.15134
-1.68847
0.222923
-1.53937
-1.71027
-0.229996
-0.883943
-0.43732
0.201084
-1.19679
-3.31338
-4.47667
-0.762271
-0.850706
-3.12302
-0.235093
-0.876196
-5.24701
-3.79982
-1.75504
-1.84787
-5.64345
-2.70895
-0.614416
-0.333974
-0.896412
-1.97129
-0.0627229
-0.560494
-3.02196
-1.01345
-2.1377
-2.68388
-3.13496
-0.618301
-0.0336608
-3.77441
0.0824226
-0.843964
-1.89833
-0.483093
-0.0815185
-0.000810265
-0.543542
-2.07942
0.166199
0.250489
-2.57976
-2.63633
-2.27912
-0.360023
-0.755059
-2.44716
-4.13044
-3.62193
-0.866442
-0.142188
-2.82747
-4.02721
-0.183153
-2.85312
-2.54934
-0.515622
-5.8126
-1.33442
-1.319
-2.30692
-0.0200629
-0.16058
-1.9654
-5.70405
-2.03773
-1.36384
-2.52666
-0.0833249
-0.633725
-3.09247
-5.53363
-0.35107
-0.09518
-0.0363968
0.209883
-0.205512
-1.18703
-5.69407
-2.23484
-2.22951
-0.430417
-0.27452
-5.21483
-2.19321
-4.66988
-0.394327
-0.957752
-6.26198
0.0103886
0.248151
-0.939996
-3.03367
-0.296372
-0.74242
-0.868747
-3.02047
-1.01372
-2.97721
-0.757071
-0.443014
-0.929981
-2.19288
-2.02541
0.147562
-1.04074
-0.0458572
-0.0554092
-6.90859
-1.50083
-1.11739
-6.27745
-1.56906
-1.95513
-1.67656
0.194013
-1.20805
-1.07133
-0.601312
-0.409668
-2.0811
-3.86226
0.276205
-1.07104
-1.58604
-0.187006
-1.84967
-0.85469
-0.0825581
-1.08164
-5.6052
-1.39267
-0.174319
-2.13962
-4.08522
-0.0275436
-0.904822
0.20104
-2.59187
-1.7831
-1.2044
-2.90683
-0.404713
0.183372
-1.26391
-0.321343
-3.0519
-6.67273
-0.25423
-1.04019
-2.76865
-0.695082
-7.05702
-0.649949
0.252954
-5.09939
-0.868875
-5.14211
-0.620394
0.246925
0.279852
-6.54707
-3.37589
-0.59033
-0.546292
0.0386499
0.253081
-1.9695
-0.821618
-0.566099
-4.8211
-0.879209
-0.85046
-1.91827
-0.837458
-0.663546
-1.02464
-0.2293
0.130202
-1.43712
-0.24409
-1.90905
-0.130723
0.27203
-1.83277
-1.88865
-0.805893
-1.68046
-1.09723
-0.58366
0.132987
-0.586707
-3.91318
-5.48357
-0.209924
0.274358
-7.56549
0.231228
-0.436694
-6.78049
-3.36835
-0.332734
-2.49622
-0.468311
-0.613387
-4.54102
-5.74096
-6.13309
-3.7698
-1.00751
-1.59993
-7.42121
-1.90661
-0.42597
0.248143
-0.480157
-4.21956
-0.70729
-1.97874
-0.66649
-3.49505
-0.209267
-6.3734
-1.41783
-0.375239
-0.610688
-0.278691
-4.16712
-3.81024
-2.71712
-0.712165
-0.473296
0.250126
-0.527213
-0.979828
-0.427032
0.268599
-0.288542
-6.42347
-0.821354
-0.245517
-1.00507
-4.24506
-0.617137
-0.877377
0.033005
-5.25132
-5.96643
-7.42042
-3.61384
-0.344873
-1.00221
-2.96419
-0.560787
-7.21229
-6.43242
-4.51605
-0.693005
-0.302464
-6.44897
0.274634
-0.771719
-7.67261
-7.29072
-6.29686
-7.29129
-6.06854
-0.283927
0.245525
-2.99752
-0.121735
-1.29015
-0.756443
-7.51214
-7.90532
-0.400882
0.21027
-0.53116
-0.521817
-4.23386
0.239111
-8.12076
-7.61532
-0.665044
-2.90445
-6.49746
-0.650617
-0.508334
-6.19916
-0.149764
-7.81286
-7.44226
-0.707417
-1.9964
-6.17272
-1.44943
-0.617375
0.226496
-0.452707
-0.311927
-7.72568
-0.733438
-6.15467
-0.216012
-0.00696165
-0.378085
0.271674
-7.1375
-3.96455
-0.743513
-1.10025
-3.4259
-2.88403
-4.53628
-7.99731
-0.57648
-4.31153
-7.7544
-0.805958
-7.80799
-1.66174
0.167973
-0.546876
-2.12017
-0.205461
-0.120416
-1.95394
-0.585888
-2.97606
-4.77431
-5.53286
-3.69185
-2.40252
-1.98676
0.196221
-5.03645
-0.422811
-3.61564
-0.640767
-7.08058
-5.68034
-6.31403
-4.38401
-2.97967
-0.726016
-7.02932
0.25262
-0.226698
-3.88547
-0.347766
-0.459235
-2.09371
-3.71476
-8.02691
-0.788343
-0.616418
-0.292157
-7.96197
-0.602876
-0.369253
-3.0641
-1.39424
-0.28008
-6.9317
-2.07026
-0.414917
-3.31384
-7.8342
0.279123
-2.21421
-0.224648
0.252074
0.270341
-0.728361
-0.643267
-0.177772
0.192118
0.269306
-6.48624
0.262877
-0.110881
-4.49623
-3.35906
-0.603304
-3.76944
-0.571561
-2.06757
-4.62311
-0.146449
-0.712913
-1.89228
-3.25581
-1.83812
-3.90704
-0.42206
-0.591503
-5.80354
-2.15681
-0.447049
-3.54325
-0.583912
-1.73213
-0.107319
-2.34473
-2.76586
-1.9016
-3.28263
-3.17174
-2.79073
-0.637145
-3.90086
-0.192116
-2.49318
-6.29061
-3.69057
-0.901823
-1.79932
-2.93965
-1.85629
-1.89553
-0.628014
-1.71386
-3.27598
-0.341801
0.19964
-4.57753
-1.78018
-4.75976
-0.471832
-0.344176
-2.11451
-0.231903
-4.52677
0.259353
-1.77355
-0.83147
-0.120946
0.254447
-2.89799
-2.10536
-2.53166
-1.9795
-2.22893
-5.00164
-7.85938
-0.764466
-4.35762
0.13442
-0.718222
-1.98793
-2.37165
0.202289
-6.7468
-0.480102
-2.47216
-0.259865
-2.92308
-0.430491
-0.679865
-6.1525
-2.73346
-2.80514
-5.51149
-1.54156
-4.20192
-3.48782
-0.533995
0.077443
-6.30604
-3.94854
0.241408
-2.8811
-6.63597
-0.713948
-1.38392
-1.72619
-3.94187
-8.00495
-7.94332
-8.02895
-7.53974
-6.18685
-0.266574
-2.79644
-3.53768
-6.73226
-5.97555
-3.92448
-2.36463
-2.57228
-2.73266
-2.93487
-1.56926
-0.823679
-6.35996
-2.36187
0.271154
0.189354
-2.38578
0.254952
-4.98436
-0.815128
-4.01868
-4.06375
0.146133
-2.85941
-2.27206
-0.102678
0.265014
-3.07119
-6.20864
-4.78905
-4.1927
-2.46229
-0.195731
-0.982001
-3.25839
-5.0979
-2.28686
0.228097
-0.899121
-0.862734
-4.90841
-2.63559
-4.85031
-3.87621
-6.74572
-0.189541
-4.90474
-4.08424
0.190852
-4.7668
-3.79629
-3.01266
-4.17709
-1.40849
-4.59723
-0.170444
-4.21015
-2.85233
-0.265282
-6.00526
-5.94892
-2.01228
-2.189
-0.53572
-0.823378
-4.32885
-1.92252
-1.33993
-3.53293
-1.53112
-1.4168
-3.37428
-2.64637
-4.68773
-4.31586
-1.07409
-1.48546
-0.562892
-0.430699
-5.82729
-0.00825998
-0.283661
-4.62667
-6.06781
-6.65601
-0.582671
0.256926
0.208814
-4.93015
-0.875199
-0.357412
-0.894478
-5.16938
-0.216722
-0.265296
-4.46977
-6.84954
-5.00838
-0.510418
-5.28722
-5.53294
-1.35822
0.277051
-5.05123
-4.40865
-4.01179
-0.423401
-2.75486
-0.420729
-1.11369
0.280494
-3.39847
-0.365256
-2.04945
-0.476045
-3.50692
-0.404991
-0.957721
0.225814
-4.37714
-3.47549
-0.489516
-6.15408
-5.51974
0.276492
-0.609554
-0.299334
0.273728
-4.14956
-4.60561
-7.22056
-6.6975
-5.62706
-5.70899
-2.10835
-5.63321
-2.55755
0.283535
-1.11549
-5.55549
-5.87202
-4.25554
-1.02146
0.247676
-5.32412
-1.04826
-7.48047
-2.39789
-5.40372
-2.6816
-4.76562
-4.51063
-3.70387
-4.71693
-7.22756
-5.45266
-0.368723
-4.30542
-6.15274
0.278928
-0.38998
-3.1023
-3.75602
-5.59904
-5.44019
-2.15189
-5.02773
-6.83738
0.279782
-2.78962
-5.38391
-2.62511
-7.42822
0.27836
-0.717219
-6.89891
0.107205
-0.954819
-5.89027
-5.73718
-2.16212
-5.14689
-5.67131
-0.334779
-5.15734
-4.86319
-6.51494
-5.92184
-0.0832771
-1.02327
-5.23008
-5.42146
-0.26348
-5.19949
-0.225908
-4.72474
-5.63393
-0.348962
-2.57567
-5.24571
-5.78715
-0.297066
-1.99094
-6.51622
-0.432091
-6.6526
0.266139
-5.83319
-5.88588
-6.02156
-6.03355
0.276112
-2.63963
-2.24718
-5.21882
-0.814177
-4.77349
-0.386545
-6.11275
-6.11069
-5.90357
-5.86808
-0.958951
-2.20993
0.233647
-2.45308
-6.35541
-5.83474
-6.36771
-6.31937
-6.44817
-5.95083
-6.16239
-6.45555
-6.11324
-6.34309
-2.38139
-6.48762
-4.7734
-6.21504
-0.989719
-0.386402
-5.05478
-2.44811
-5.26576
-5.257
-5.52809
-5.3296
-5.20352
0.271846
-0.412031
-2.53056
0.276359
-0.41764
0.282222
0.279662
-1.21508
-6.38892
-5.6711
-0.523698
-1.14492
-5.35253
-7.97905
-1.0846
-2.18003
-5.30722
-1.22372
-2.41351
-8.03738
-1.28504
-6.32069
-8.07116
-7.58177
-3.80716
-7.86404
-2.60103
-4.60746
-2.8593
-3.98062
-4.36293
-6.0096
-0.400065
-3.44623
-1.15675
-2.5304
-1.4777
-3.27331
-1.6289
-0.733337
-2.87861
0.204099
-1.39209
-1.12731
-5.62963
-3.73212
-2.34255
-2.79322
-1.0052
-2.66855
-1.21527
-3.193
-5.65625
-2.46318
-5.8718
-1.5324
0.28073
-1.07244
-5.08559
-2.39754
-5.25319
0.27242
-3.45735
-3.26048
-2.10464
-2.6759
-2.75935
-5.71746
-1.56064
-1.10356
0.228394
-6.42444
0.278809
-0.498224
-0.306587
0.0923036
-0.995784
-1.1505
-0.513982
-3.83105
-3.08462
-1.59487
-0.961743
-0.811473
-3.0709
-3.99677
0.177127
0.279686
-0.899153
-2.65883
-4.83417
-0.883043
0.279549
-0.759698
-5.50006
-5.45094
-1.96279
0.280464
-0.536723
-3.78464
-0.344224
-5.15503
-3.16788
-6.3751
-1.38899
-4.18295
-1.07922
-7.10322
-2.23035
-3.33558
-1.90002
-0.698718
-0.509527
-1.0832
-0.596923
-1.47051
-0.715833
-1.2407
-0.415502
-1.10909
-1.22874
-0.759485
-2.84416
-0.772007
-0.914438
0.142722
-2.3615
-6.25512
-6.33058
-0.292075
-5.89053
-0.612741
0.275772
0.128781
-0.892553
-5.35858
-1.17297
-5.00371
-1.14446
-1.70871
0.265585
-3.53685
-0.766043
-5.35678
-0.545999
-0.678441
-1.18983
-3.43861
-0.67271
-0.778182
-0.738369
-0.294679
-0.760854
-5.26798
0.12242
-0.90757
-0.485011
-6.31896
-1.98692
-1.81435
-2.00304
-5.78692
0.278457
-2.049
-0.290365
-1.80138
-0.41567
-0.53588
-2.0913
-0.42756
-1.23313
-2.15271
-0.99468
-5.95083
-0.810035
-5.24666
-0.367393
-2.88941
-0.438761
-1.93695
0.265051
0.267057
-3.6671
-1.27893
-4.27965
-2.1925
-3.24072
0.276909
-0.737535
-0.480963
0.260683
-0.52898
-2.25135
-1.05817
-1.6619
-0.525853
-0.523785
-2.17326
-5.72091
-1.74763
0.27338
-0.651406
-0.301006
-0.849009
-0.632347
-0.860878
-0.149744
0.259846
-1.63959
0.276673
-0.0647381
-1.71077
-5.12861
-5.95552
-3.76452
-6.87852
-1.54356
-0.952861
-0.319174
-3.86822
-0.574099
0.258284
0.257316
-0.207019
-1.30753
0.258446
-2.74477
-0.507415
-0.876711
-4.08459
-0.771815
-0.674724
-0.756326
-3.14872
0.22833
-0.812533
0.187163
-5.12045
-0.370192
-0.0329781
-0.532917
-1.12647
-6.41762
-0.641338
-0.856794
-0.698349
-0.459436
-3.17613
-6.47066
-0.537757
0.269398
-0.759917
-0.930223
-0.338118
0.265094
-0.626524
-1.13552
-0.718379
-3.43153
-0.494764
-2.02473
-2.63773
-1.35323
-0.487873
-0.498987
-0.44135
-0.635724
-1.27715
-1.74305
-7.05282
0.278381
0.232303
-6.67762
-0.859082
-7.21623
-5.59298
0.266362
0.280084
-0.525402
-1.7649
-3.4708
-3.05729
-5.86132
-6.57602
-1.14138
-0.973174
-6.98196
-0.85043
-1.1597
0.262341
0.27545
-0.553604
-5.01948
-0.61925
-0.469601
-2.99487
-3.17818
-7.3735
0.281918
-1.98661
-5.67453
-2.22983
-1.0754
-0.754716
-2.02265
-2.56658
-2.99678
0.204686
-0.92422
-2.13533
-2.40158
0.0488724
-1.20761
-0.861325
-0.941908
-7.22912
-0.934265
-0.687875
-2.47577
-0.568243
-2.66536
-2.31018
-2.37699
-0.914782
-1.86841
-0.615779
-1.0218
-0.68264
-1.20856
-2.95145
-2.0924
-1.20288
-6.98752
-4.35941
-1.33549
-7.84591
-2.50836
-0.889439
-0.45608
-7.65122
-6.92349
0.265682
-1.01852
0.276376
-0.954496
-2.53734
-1.2387
-1.39483
-0.569979
0.268755
-1.19587
-1.61695
0.189908
-1.40941
-7.77134
-3.97591
-1.42932
-3.34248
-0.480006
-0.919098
-4.93387
0.219272
-2.065
-2.45688
0.266169
-1.00469
-6.34148
0.282064
-0.629584
-1.14874
-1.62075
-5.1041
-5.13555
-7.94973
-4.71092
-3.70645
-8.24004
-0.0100905
-1.13572
-1.81242
-0.969171
-0.825865
-0.599472
-1.65989
0.101815
-1.12192
-0.335395
-0.362585
-4.12913
-4.27819
-1.38394
-4.29973
-1.53451
-1.52087
0.143765
0.263924
-1.75408
0.0209587
-1.13461
0.0328036
-1.15624
-1.1962
-0.865668
-7.73113
-0.397529
-1.0413
-5.7783
0.281768
-7.84363
-2.29907
0.269128
-2.26847
-0.900744
-0.058724
-0.239159
-0.897367
0.0821881
-0.967971
0.105257
0.130585
0.155008
0.136953
-3.63695
-0.126322
-4.37881
-4.38696
-4.35342
-2.71962
-1.31336
0.12441
-6.85405
-0.295294
-2.4577
-1.11429
0.155186
-1.29922
-0.86644
-2.96867
0.158289
-1.31494
0.16598
-0.797398
-1.45318
0.233316
-0.660474
-1.81662
-0.875148
0.0656397
-0.884057
0.100075
-2.39168
-1.38592