<VTKFile type="UnstructuredGrid" version="0.1" byte_order="LittleEndian">
  <UnstructuredGrid>
    <Piece NumberOfPoints="15756" NumberOfCells="31026">
      <Points>
        <DataArray type = "Float64" NumberOfComponents="3" format="ascii">
3.5 2.00105 0.0 
3.5 1.99895 0.0 
0 0 0.0 
12 0 0.0 
0 4 0.0 
12 4 0.0 
1.9851 0.464008 0.0 
6.54577 2.37301 0.0 
1.84447 1.95792 0.0 
2.78803 1.93777 0.0 
3.46822 2.00422 0.0 
3.4492 2.00609 0.0 
9.75011 0.429191 0.0 
4.50028 4 0.0 
3.4284 2.00811 0.0 
4.2924 2.85568 0.0 
3.40943 2.00992 0.0 
3.89371 3.20948 0.0 
3.39055 2.01171 0.0 
10.5646 0.785159 0.0 
3.37064 2.01358 0.0 
3.76085 1.38706 0.0 
3.94143 1.77338 0.0 
6.50172 2.23987 0.0 
3.3441 2.01602 0.0 
8.71414 3.48589 0.0 
3.32932 2.01737 0.0 
3.31416 2.01873 0.0 
6.45766 3.19694 0.0 
3.30101 2.01991 0.0 
4.25007 4 0.0 
6.21511 1.68343 0.0 
3.28104 2.02167 0.0 
11.443 2.87979 0.0 
3.26112 2.02341 0.0 
7.27082 2.03327 0.0 
7.00257 2.02554 0.0 
3.54479 2.96196 0.0 
3.23123 2.02597 0.0 
9.6262 0.214678 0.0 
8.28155 1.27045 0.0 
3.21131 2.02765 0.0 
3.20135 2.02848 0.0 
3.18889 2.02951 0.0 
3.17635 2.03053 0.0 
0.759789 2.22952 0.0 
6.31241 3.69051 0.0 
3.16034 2.03183 0.0 
3.15052 2.03262 0.0 
0.628639 2.20506 0.0 
6.18605 3.69419 0.0 
3.13957 2.03349 0.0 
8.2554 3.03856 0.0 
3.1296 2.03426 0.0 
3.59434 3.23904 0.0 
3.12171 2.03487 0.0 
5.00555 1.54171 0.0 
3.11166 2.03562 0.0 
4.05562 1.64375 0.0 
3.10169 2.03635 0.0 
8.08727 1.03907 0.0 
3.0922 2.03704 0.0 
9.87757 2.91797 0.0 
3.08224 2.03774 0.0 
7.9699 1.83369 0.0 
3.07177 2.03847 0.0 
3.05986 2.03927 0.0 
3.04983 2.03993 0.0 
2.29977 2.41319 0.0 
3.03985 2.04058 0.0 
4.30691 0 0.0 
3.02987 2.04121 0.0 
8.66013 2.72876 0.0 
3.0199 2.04182 0.0 
3.00992 2.04242 0.0 
6.93534 2.09444 0.0 
3.00193 2.04289 0.0 
3.08598 1.86585 0.0 
8.139 0.957062 0.0 
2.98711 2.04373 0.0 
2.01521 3.15177 0.0 
2.97747 2.04427 0.0 
10.0614 2.26476 0.0 
2.96958 2.04469 0.0 
3.47062 0 0.0 
2.96201 2.04509 0.0 
3.62467 1.98953 0.0 
2.95043 2.04569 0.0 
9.9963 2.9126 0.0 
2.94005 2.0462 0.0 
2.93089 2.04665 0.0 
3.19113 1.96932 0.0 
7.39877 0.820068 0.0 
2.92007 2.04715 0.0 
9.25464 2.64568 0.0 
2.91208 2.04752 0.0 
4.90901 0.0899404 0.0 
10.8572 2.96282 0.0 
2.8996 2.04807 0.0 
2.8946 2.04828 0.0 
8.13323 0.520161 0.0 
2.88961 2.04847 0.0 
1.66722 1.31528 0.0 
2.88461 2.04866 0.0 
2.88003 2.04882 0.0 
6.53104 2.17607 0.0 
3.48566 3.07454 0.0 
2.87462 2.04899 0.0 
2.99397 0.793997 0.0 
2.86962 2.04914 0.0 
3.68904 2.43563 0.0 
5.55297 1.19165 0.0 
2.85755 2.04945 0.0 
2.86213 2.04934 0.0 
5.00296 2.24736 0.0 
11.0785 1.20913 0.0 
2.85213 2.04957 0.0 
8.44458 0.81353 0.0 
2.84714 2.04967 0.0 
5.12905 1.87395 0.0 
2.84214 2.04975 0.0 
2.83714 2.04983 0.0 
12 2.76485 0.0 
2.7008 2.0473 0.0 
2.83214 2.04989 0.0 
2.82714 2.04994 0.0 
6.68151 2.2692 0.0 
2.81965 2.04999 0.0 
2.82215 2.04997 0.0 
9.56711 0.537462 0.0 
2.83587 2.07543 0.0 
2.81215 2.05001 0.0 
2.80472 2.05001 0.0 
2.79507 2.04997 0.0 
2.79965 2.05 0.0 
2.74971 1.15802 0.0 
6.66562 3.18401 0.0 
2.78966 2.04993 0.0 
3.68248 0 0.0 
2.78466 2.04988 0.0 
9.45522 2.67434 0.0 
2.77966 2.04982 0.0 
7.88728 1.90278 0.0 
2.77466 2.04975 0.0 
8.95269 0.105804 0.0 
2.77216 2.04971 0.0 
2.76716 2.04961 0.0 
2.76467 2.04956 0.0 
8.49528 2.50007 0.0 
2.75967 2.04946 0.0 
2.75467 2.04934 0.0 
6.69534 2.37564 0.0 
2.74967 2.0492 0.0 
2.38299 1.40043 0.0 
2.74468 2.04906 0.0 
9.51856 2.75585 0.0 
2.73968 2.04891 0.0 
2.73469 2.04874 0.0 
9.41426 2.76593 0.0 
2.73219 2.04865 0.0 
2.72719 2.04847 0.0 
2.72261 2.04829 0.0 
7.07481 1.96072 0.0 
6.25672 2.55423 0.0 
2.7172 2.04806 0.0 
8.83747 2.67733 0.0 
6.05949 2.48292 0.0 
2.71221 2.04785 0.0 
6.62 2.79701 0.0 
2.70472 2.0475 0.0 
2.67763 2.04605 0.0 
2.69045 2.04677 0.0 
2.69475 2.047 0.0 
7.9971 0.832157 0.0 
4.48418 1.12971 0.0 
2.68477 2.04646 0.0 
5.22315 1.80655 0.0 
6.43197 2.27305 0.0 
2.67479 2.04588 0.0 
9.04251 2.70224 0.0 
2.66978 2.04558 0.0 
2.6648 2.04526 0.0 
9.48102 3.02398 0.0 
2.65981 2.04494 0.0 
8.79605 3.01706 0.0 
2.65482 2.04461 0.0 
2.40884 2.53626 0.0 
2.64741 2.04409 0.0 
8.98557 2.77888 0.0 
8.27749 0.708363 0.0 
2.63986 2.04355 0.0 
4 4 0.0 
2.63239 2.04298 0.0 
5.31058 1.48023 0.0 
2.62498 2.0424 0.0 
8.23459 1.16471 0.0 
2.62242 2.0422 0.0 
1.69508 1.21458 0.0 
2.61495 2.04158 0.0 
9.08968 2.78231 0.0 
2.60755 2.04095 0.0 
9.42671 3.11439 0.0 
4.54495 0.873229 0.0 
2.60001 2.04028 0.0 
5.25422 2.73436 0.0 
2.58798 2.03916 0.0 
2.59254 2.03959 0.0 
6.48051 3.12278 0.0 
5.5023 4 0.0 
8.97315 2.9414 0.0 
2.58259 2.03864 0.0 
9.42058 2.93769 0.0 
3.21374 1.9286 0.0 
2.57513 2.0379 0.0 
2.57264 2.03764 0.0 
2.57016 2.03735 0.0 
2.56768 2.03702 0.0 
2.56522 2.03662 0.0 
2.56276 2.03616 0.0 
2.56031 2.03565 0.0 
2.55788 2.03508 0.0 
2.55546 2.03446 0.0 
2.55305 2.03379 0.0 
2.55066 2.03307 0.0 
2.54828 2.0323 0.0 
2.54592 2.03148 0.0 
2.54357 2.03062 0.0 
2.54124 2.02971 0.0 
2.53893 2.02876 0.0 
2.53664 2.02777 0.0 
2.53436 2.02674 0.0 
2.5321 2.02567 0.0 
2.52986 2.02456 0.0 
2.52764 2.02342 0.0 
2.52544 2.02224 0.0 
2.52325 2.02103 0.0 
2.52108 2.01978 0.0 
2.51893 2.01851 0.0 
2.5168 2.0172 0.0 
2.51469 2.01587 0.0 
2.51259 2.01451 0.0 
2.51052 2.01312 0.0 
2.50845 2.0117 0.0 
2.50644 2.01022 0.0 
2.50456 2.00858 0.0 
2.50283 2.00678 0.0 
2.50139 2.00474 0.0 
2.50037 2.00246 0.0 
2.5 2 0.0 
2.50037 1.99754 0.0 
2.50139 1.99526 0.0 
2.50283 1.99322 0.0 
2.50456 1.99142 0.0 
2.50644 1.98978 0.0 
2.50845 1.9883 0.0 
2.51052 1.98688 0.0 
2.51259 1.98549 0.0 
2.51469 1.98413 0.0 
2.5168 1.9828 0.0 
2.51893 1.98149 0.0 
2.52108 1.98022 0.0 
2.52325 1.97897 0.0 
2.52544 1.97776 0.0 
2.52764 1.97658 0.0 
2.52986 1.97544 0.0 
2.5321 1.97433 0.0 
2.53436 1.97326 0.0 
2.53664 1.97223 0.0 
2.53893 1.97124 0.0 
2.54124 1.97029 0.0 
2.54357 1.96938 0.0 
2.54592 1.96852 0.0 
2.54828 1.9677 0.0 
2.55066 1.96693 0.0 
2.55305 1.96621 0.0 
2.55546 1.96554 0.0 
2.55788 1.96492 0.0 
2.56031 1.96435 0.0 
2.56276 1.96384 0.0 
2.56522 1.96338 0.0 
2.56768 1.96298 0.0 
2.57016 1.96265 0.0 
2.57264 1.96236 0.0 
2.57513 1.9621 0.0 
2.58259 1.96136 0.0 
2.10711 3.14008 0.0 
2.58998 1.96065 0.0 
5.90872 0.820057 0.0 
2.59503 1.96018 0.0 
2.60001 1.95972 0.0 
9.62748 0.429652 0.0 
2.60499 1.95928 0.0 
2.60997 1.95884 0.0 
1.81278 3.15931 0.0 
2.61495 1.95842 0.0 
2.61993 1.95801 0.0 
8.3416 3.67428 0.0 
2.62491 1.9576 0.0 
2.62989 1.95721 0.0 
2.00612 3.05741 0.0 
2.63488 1.95683 0.0 
2.63986 1.95645 0.0 
2.64485 1.95609 0.0 
4.49088 0.755642 0.0 
2.64983 1.95574 0.0 
2.6623 1.9549 0.0 
2.65482 1.95539 0.0 
2.65981 1.95506 0.0 
8.17613 1.24546 0.0 
8.32922 1.37667 0.0 
2.66729 1.95458 0.0 
11.2956 1.25205 0.0 
4.3396 1.47049 0.0 
2.67228 1.95427 0.0 
2.67727 1.95397 0.0 
4.89173 1.06607 0.0 
2.68475 1.95354 0.0 
7.1797 3.01234 0.0 
2.69217 1.95314 0.0 
11.1454 3.21 0.0 
2.69723 1.95288 0.0 
2.69973 1.95275 0.0 
8.65293 3.5846 0.0 
2.70715 1.95239 0.0 
6.98436 0.577155 0.0 
1.72691 1.7166 0.0 
2.71221 1.95215 0.0 
2.7172 1.95194 0.0 
2.97633 2.66185 0.0 
2.7222 1.95173 0.0 
8.83401 3.49003 0.0 
2.72719 1.95153 0.0 
5.32901 2.82744 0.0 
10.5184 4 0.0 
2.73219 1.95135 0.0 
2.73718 1.95118 0.0 
2.11601 2.60377 0.0 
11.6154 4 0.0 
2.74218 1.95102 0.0 
5.77979 1.61961 0.0 
2.74967 1.9508 0.0 
2.76007 1.95054 0.0 
2.7571 1.9506 0.0 
1.64636 2.6782 0.0 
1.27321 0 0.0 
2.76467 1.95043 0.0 
2.76966 1.95034 0.0 
6.6018 2.00745 0.0 
2.77216 1.95029 0.0 
2.77716 1.95021 0.0 
2.77966 1.95018 0.0 
2.78466 1.95012 0.0 
2.79209 1.95005 0.0 
2.87817 1.47872 0.0 
2.79715 1.95001 0.0 
1.90385 2.93787 0.0 
2.48313 3.20741 0.0 
2.80215 1.94999 0.0 
2.80715 1.94998 0.0 
4.65772 1.42674 0.0 
2.81215 1.94999 0.0 
2.81715 1.95 0.0 
6.53797 2.04299 0.0 
1.86132 1.09968 0.0 
4.96217 3.12471 0.0 
2.82215 1.95003 0.0 
2.82714 1.95006 0.0 
2.82964 1.95009 0.0 
1.95141 1.68591 0.0 
2.83707 1.95017 0.0 
2.84464 1.95029 0.0 
2.84964 1.95038 0.0 
8.28963 0.891942 0.0 
2.85463 1.95048 0.0 
12 1.23431 0.0 
6.45076 2.55191 0.0 
2.86213 1.95066 0.0 
2.86713 1.95079 0.0 
3.03208 0.590794 0.0 
2.87212 1.95093 0.0 
2.87712 1.95109 0.0 
5.92551 2.39886 0.0 
2.88211 1.95125 0.0 
7.52041 1.95005 0.0 
2.88711 1.95143 0.0 
3.94596 1.96105 0.0 
2.8921 1.95162 0.0 
2.55955 2.10907 0.0 
2.8971 1.95183 0.0 
2.36756 2.59122 0.0 
2.90417 1.95213 0.0 
2.91208 1.95248 0.0 
2.41845 0.54956 0.0 
2.92207 1.95294 0.0 
4.98013 2.59309 0.0 
2.93157 1.95339 0.0 
1.73985 0 0.0 
2.94154 1.95387 0.0 
2.95152 1.95437 0.0 
3.04684 0.820813 0.0 
2.96201 1.95491 0.0 
3.15334 2.0824 0.0 
2.9715 1.95541 0.0 
8.21919 1.62771 0.0 
2.98147 1.95595 0.0 
0.966707 1.21788 0.0 
2.99145 1.95651 0.0 
2.48713 1.20211 0.0 
3.00193 1.95711 0.0 
6.74826 3.04677 0.0 
3.01143 1.95767 0.0 
2.52184 4 0.0 
3.02139 1.95827 0.0 
2.86622 0.783757 0.0 
3.03137 1.95889 0.0 
2.28594 3.06106 0.0 
3.04135 1.95952 0.0 
8.55526 1.23176 0.0 
3.05132 1.96016 0.0 
1.97481 2.84888 0.0 
3.0618 1.96086 0.0 
6.67764 1.24793 0.0 
3.07177 1.96153 0.0 
0.769062 1.4551 0.0 
3.08126 1.96219 0.0 
3.36352 2.09583 0.0 
3.09172 1.96293 0.0 
3.09837 1.96341 0.0 
10.1159 4 0.0 
8.76544 2.38276 0.0 
3.11166 1.96438 0.0 
6.44646 2.19183 0.0 
3.12114 1.96509 0.0 
3.1311 1.96585 0.0 
6.86748 2.2434 0.0 
3.14156 1.96667 0.0 
4.12972 2.10797 0.0 
3.15104 1.96742 0.0 
8.26271 1.45414 0.0 
1.31732 1.6016 0.0 
3.17146 1.96907 0.0 
3.39297 2.03424 0.0 
3.18336 1.97004 0.0 
0 3.32242 0.0 
3.20135 1.97152 0.0 
3.22072 1.97314 0.0 
3.22302 1.20467 0.0 
3.77061 2.2698 0.0 
3.23123 1.97403 0.0 
6.26813 0.912411 0.0 
3.24555 1.97525 0.0 
8.58402 0.30847 0.0 
3.26112 1.97659 0.0 
2.72907 2.38002 0.0 
1.96211 2.17277 0.0 
3.28104 1.97833 0.0 
2.82199 1.46482 0.0 
3.51051 2.44123 0.0 
3.30038 1.98003 0.0 
3.56954 1.22819 0.0 
3.57932 2.15777 0.0 
3.31787 1.9816 0.0 
8.37508 1.48322 0.0 
3.33233 1.9829 0.0 
5.22776 3.41586 0.0 
8.68938 1.7583 0.0 
3.35073 1.98458 0.0 
1.50522 0 0.0 
3.37064 1.98642 0.0 
1.04781 0 0.0 
5.05447 3.32249 0.0 
3.39055 1.98829 0.0 
4.50322 1.17767 0.0 
10.3114 4 0.0 
3.41483 1.99059 0.0 
6.59792 1.73349 0.0 
[...]
<PointData>
  <DataArray type = "Float64" Name="BLMLevelSetLayer1" format="ascii">
0.0675077
0.0675077
-3.13218
-8.66438
-3.13218
-8.66438
-1.53812
-3.00089
-0.590471
0.0551908
0.0675075
0.0675091
-6.37672
-2.16774
0.0675074
-1.09795
0.0675081
-1.20344
0.0675077
-7.10058
0.0675077
-0.597666
-0.428216
-2.9437
0.0675073
-5.35393
0.0675077
0.0675079
-3.12277
0.0675092
-2.06754
-2.66587
0.0675077
-7.92395
0.0675077
-3.70345
-3.43514
-0.893133
0.0675077
-6.31324
-4.76922
0.0675077
0.0675077
0.0675071
0.0675083
-1.68854
-3.21334
0.0675079
0.0675084
-1.81592
-3.10765
0.067507
-4.79976
0.067507
-1.17373
0.0675079
-1.50595
0.0675077
-0.59195
0.0675077
-4.61911
0.0675078
-6.37564
0.0675078
-4.40544
0.0675077
0.0675071
0.067507
-0.3839
0.067507
-2.08816
0.067507
-5.14368
0.067507
0.067507
-3.3691
0.0675077
-0.0289253
-4.68706
0.0675062
-1.17153
0.0675063
-6.49922
0.0675066
-1.91982
0.0675077
-0.0575157
0.0675075
-6.49243
0.067507
0.0675089
0.066158
-4.0056
0.067507
-5.72312
0.0675077
-2.30518
-7.35229
0.0675037
0.067504
-4.79599
0.0675038
-1.00869
0.0675038
0.0675055
-2.96858
-0.999553
0.0675038
-1.09354
0.0675038
-0.406405
-2.13849
0.0675035
0.0675077
-1.4555
-7.55203
0.0675083
-5.01718
0.0675024
-1.56633
0.0675082
0.0675024
-8.46674
0.0675082
0.0675077
0.0675024
-3.12528
0.0675038
0.0675077
-6.17315
0.0419169
0.0675082
0.067504
0.0675045
0.0675033
-0.725051
-3.31192
0.0675039
-1.93968
0.0675039
-5.92566
0.0675039
-4.32083
0.0675039
-5.70448
0.0675077
0.0675024
0.0675039
-4.95263
0.0675033
0.0675038
-3.14971
0.0675039
-0.523277
0.0675039
-5.9982
0.0675033
0.0675039
-5.89601
0.0675077
0.0675025
0.0675085
-3.50751
-2.74416
0.0675025
-5.31264
-2.53695
0.0675077
-3.15243
0.0675045
0.0675053
0.0675067
0.0675046
-4.57849
-1.24557
0.0675046
-1.66635
-2.87705
0.0675045
-5.51918
0.067504
0.0675044
-6.00036
0.0675044
-5.32512
0.0675044
-0.455246
0.0675033
-5.47294
-4.88123
0.0675039
-1.99303
0.0675077
-1.81591
0.0675045
-4.74002
0.0675077
-1.0548
0.0675043
-5.5765
0.0675032
-5.96286
-1.46845
0.0675038
-1.83381
0.067504
0.0675077
-3.1171
-2.7618
-5.48583
0.0675077
-5.9267
0.0237069
0.0674975
0.0675076
0.0674255
0.0673909
0.0674205
0.0675077
0.0674255
0.0673989
0.0674266
0.0675077
0.0674324
0.0674081
0.0674336
0.0675077
0.0674396
0.0674177
0.0674408
0.0675077
0.0674466
0.067427
0.067448
0.0675077
0.0674527
0.0674355
0.0674542
0.0675077
0.0674583
0.0674384
0.0674617
0.0675077
0.0671535
0.0669955
0.0670734
0.0675077
0.0664949
0.0661209
0.0664949
0.0675077
0.0670734
0.0669955
0.0671535
0.0675077
0.0674617
0.0674384
0.0674583
0.0675077
0.0674542
0.0674355
0.0674527
0.0675077
0.067448
0.067427
0.0674466
0.0675077
0.0674408
0.0674177
0.0674396
0.0675077
0.0674336
0.0674081
0.0674324
0.0675077
0.0674266
0.0673989
0.0674255
0.0675077
0.0674205
0.0673909
0.0674255
0.0675076
0.0674975
0.0675077
-1.12472
0.0675044
-2.61423
0.0675038
0.0675043
-6.25774
0.0675038
0.0675043
-1.27415
0.0675038
0.0675043
-5.05507
0.0675039
0.0675044
-1.09062
0.0675039
0.0675044
0.0675044
-1.52235
0.0675044
0.0675086
0.0675039
0.0675044
-4.66894
-4.80164
0.0675032
-7.76379
-0.924557
0.0675077
0.0675033
-1.60796
0.067504
-3.74863
0.0675082
-7.67287
0.0675033
0.0675046
-5.32325
0.0675034
-3.69577
-0.755571
0.0675077
0.0675025
-0.549178
0.0675083
-5.47043
0.0675025
-1.93953
-7.23003
0.0675077
0.0675025
-0.642815
-8.29046
0.0675077
-2.24363
0.0675039
0.0675055
0.0675026
-1.02089
-2.273
0.0675033
0.0675039
-3.03429
0.0675077
0.0675024
0.0675039
0.0675033
0.0675083
-0.404694
0.0675024
-1.03853
-1.10542
0.0675077
0.0675024
-1.2239
0.0675082
0.067503
-2.97075
-1.03177
-1.77655
0.0675077
0.0675024
0.0675039
-0.5635
0.0675026
0.0675032
0.0675038
-4.84839
0.0675039
-8.46682
-2.93423
0.0675077
0.0675023
-1.2984
0.0675082
0.0675023
-2.39041
0.0675083
-3.9532
0.0675023
-0.380061
0.0675083
-0.00507014
0.0675027
-0.519975
0.0675068
0.0675077
-1.35368
0.0675077
-1.52664
0.0675078
-2.05956
0.0675078
0.0675078
-1.06951
0.0675077
0.0176572
0.0675078
-4.66626
0.0675078
-1.65283
0.0675078
-0.697532
0.0675077
-3.34493
0.0675078
-1.8924
0.0675078
-1.09923
0.0675078
-0.993921
0.0675078
-5.04564
0.0675078
-0.925188
0.0675077
-3.19768
0.0675077
-1.74708
0.0675078
-0.013742
0.0675077
0.0675068
-6.84375
-5.21175
0.0675077
-2.88513
0.0675078
0.0675078
-3.30869
0.0675077
-0.571228
0.0675077
-4.72626
-1.18029
0.0675077
0.044852
0.0675074
-2.75972
0.0675077
0.0675085
-0.698561
-0.313882
0.0675077
-2.90623
0.0675072
-5.29019
0.0675077
-0.263784
-0.497342
0.0675077
-0.417693
-0.37154
0.0675078
-0.706345
-0.108148
0.0675073
-4.83477
0.0675077
-2.16562
-5.12745
0.0675077
-2.15789
0.0675077
-2.39964
-1.97273
0.0675077
-1.22901
-7.03114
0.0675072
-3.04176
0.0675078
-0.759874
0.0675072
-0.505041
-3.26329
0.0675078
-5.43773
-0.0200568
0.0310709
-2.94078
-2.75855
-0.794422
-0.900802
-0.958702
-3.49524
-1.98074
-0.354574
-3.8733
-2.9125
-3.68962
-6.04854
-2.39435
-2.17318
-2.28119
-0.838715
-4.80636
-0.0106265
-4.56292
-1.92921
-0.00132938
-3.91753
-7.43172
-7.84184
-4.00374
-1.27382
-2.98115
-1.0005
-0.469047
-7.03801
-3.36133
-0.996594
-0.426866
-4.57833
-6.7953
-2.48244
-8.15308
-1.93988
-8.46798
-2.85201
-1.1292
-0.142741
-1.88363
-0.00469902
-8.43254
-8.4345
-8.42121
-2.00026
-0.0310583
-0.759769
-0.485001
-0.991912
-8.49747
-6.30715
-0.716404
-7.63509
-2.60076
-4.5353
-3.78803
-8.52376
-8.56365
-8.61056
-7.93614
-0.640573
-0.81095
-1.1148
-0.823121
-2.53028
-0.33392
-0.244793
-2.49388
-0.715088
-2.59334
-0.391675
-4.44266
-3.05617
-1.17483
-0.736448
-4.04202
-2.07231
-1.11218
-2.9185
-2.96414
-2.16885
-1.88467
-4.71151
-1.91211
-0.579206
-2.86252
-3.21772
0.0194276
-1.94658
-2.18251
-2.28858
-1.8832
-0.481628
-1.90173
-1.22361
-2.70893
-2.98255
-2.48136
-2.75855
-1.26379
-1.06964
-2.42825
-2.58683
-0.541175
-1.17039
-2.94078
0.052662
-0.042739
-4.86061
-2.33428
-5.19619
-2.98255
-2.44587
-2.43388
-2.44587
-6.43196
-2.54254
-2.62461
-2.7267
-2.84672
-3.21373
-5.61937
-2.71566
-5.48779
-4.77866
-1.75495
-7.46797
-5.27341
-5.10837
-5.09454
-2.50934
-1.0792
-0.544584
-4.90285
-0.146177
-2.89789
-1.86674
-0.227897
-5.47095
0.0146848
-1.25739
-2.74866
-0.0543624
-7.60986
0.0475549
-0.324732
0.0256856
-2.71893
0.0575001
-7.00865
-5.14386
-6.19143
-1.67083
-5.18857
-1.50758
-4.73904
-3.79979
-5.61864
-5.68962
-0.815433
-3.3073
-7.83709
0.0554644
-0.634361
-0.267112
-3.30844
-1.47727
-0.281031
-1.84238
-3.29002
-0.41349
-2.01292
-0.299377
-3.08021
-0.690425
-5.49177
-2.91229
-0.00857664
-1.50327
-2.8694
-0.797857
-4.25868
0.00721713
-1.6123
-2.88084
-5.66511
-5.24276
-5.36937
-3.10545
-5.26514
-0.59741
-0.270741
-1.73688
-4.63366
-0.252236
-5.0798
-0.0643686
-0.809652
-1.74187
-1.06572
-6.82757
0.0385629
-3.05051
-3.28457
-0.45881
-4.9003
-3.04977
-3.16894
-5.55412
-0.346503
-3.59735
-4.98794
-0.763269
-2.92629
-0.372063
-2.7402
-4.69963
0.0500659
-5.00436
-2.58114
0.00438644
-0.930207
-0.595344
-0.562394
-1.83592
-2.38032
-2.41835
-0.188094
-0.68891
-1.28106
0.0339978
-0.0183228
-0.248533
-0.745176
-0.298699
-0.00867369
-3.00222
-2.82639
-3.18484
-3.3302
-4.89341
-2.79533
-2.3823
-5.00918
-3.49065
0.0260076
-2.45796
-0.832062
-1.58041
-1.016
-1.58987
-3.32563
-5.05274
-4.67267
-1.66274
-4.53213
-7.83339
-2.88546
-4.55993
-4.59028
-4.86549
-0.122103
-0.00216674
-4.94408
-0.0621139
-0.00896273
-0.316629
-0.323379
-2.98778
-0.838833
-3.27338
-3.91888
-3.17543
-0.850877
-5.092
-7.29624
-5.7886
-1.21584
-1.20266
-0.441346
-0.598997
-1.97334
-0.481264
-5.43344
-0.31555
-2.81215
-5.77326
-0.323012
-0.418808
-0.601517
-3.27262
-8.40132
-1.02011
-2.87236
-6.05302
-0.732398
-1.43327
-2.20958
-0.941717
-0.514115
-0.249512
-1.4223
-2.09738
-2.01293
-0.364043
-1.36508
-0.66099
-6.08842
-3.66532
0.0217106
-0.41838
-2.57212
-2.94151
-4.68831
-0.7799
-1.83616
-0.0314117
-0.600654
-1.29053
0.0280386
0.0554136
-0.507111
-0.166303
-3.41971
0.0559786
-0.209011
-2.47401
-6.21482
-1.44629
-5.15024
-0.590958
-4.4704
-0.887754
-0.346512
-8.19987
-1.42352
-0.780222
-7.68895
-0.561822
-1.62373
-2.30624
0.0526491
0.0195421
-3.57681
-0.468483
-2.50908
-7.62069
-0.683427
-8.07622
-0.810013
-7.90529
-1.42166
-2.1447
-0.185035
-8.11141
-1.61826
-0.761202
-7.85963
-4.40731
-8.18981
-3.63102
-3.23847
-1.47724
-2.01211
-1.3115
-8.07476
-0.0783839
-0.0562211
-3.26658
-0.567795
-6.43153
-3.51896
-0.967251
-3.11719
-1.5116
-1.54337
-2.79663
-1.28711
-0.232175
-7.00285
-3.41871
-8.34154
-1.39999
-8.35824
-2.47708
-5.17513
-0.0322378
-1.76953
-5.60804
-4.40418
-0.911143
-5.16101
-3.32012
-0.0788103
-0.787974
-0.734057
-0.391304
-2.37155
-3.00557
0.0531727
-0.467176
-6.22128
-1.1505
-1.32473
-1.68721
-3.61472
-0.605868
-2.31094
-3.15223
-1.66592
-2.45591
-1.23212
-2.28654
-1.40618
-1.74457
-0.453924
-2.71605
-4.92339
-2.08092
-0.800628
-6.27608
-2.12225
-1.4561
-1.24685
-5.16362
-1.2196
-5.2882
-4.93119
-4.97089
-3.23573
-1.81057
-0.942261
-6.67487
-6.15558
-5.67124
-1.98099
-0.43131
-0.0591892
-0.669919
-2.28638
-0.434113
-5.02454
-3.33625
-3.83258
0.0571197
-1.69418
-4.90935
-3.22021
-0.967326
-2.74356
-3.99301
-3.06987
-1.48644
-2.83263
-2.37656
-1.6271
-1.36881
-5.16104
-2.06282
-0.844096
-5.05661
0.0306492
-1.10125
-2.66361
-1.25427
-1.94709
0.00299138
-6.35374
-0.0183332
-1.51073
-0.647018
-4.09136
-0.539896
-6.62156
-2.10727
-1.22443
-0.4213
-2.57318
-2.00943
-0.840573
-0.449573
-3.00986
-0.210307
-2.101
-0.957894
-2.88838
-4.45163
-2.35809
-4.03223
-0.398448
-2.76304
-3.35296
-1.56014
0.0515898
-0.0942663
-2.564
-0.189158
0.0339673
-0.894334
-1.03667
-1.40306
-1.9045
-0.0188765
-0.82525
-1.92629
-2.91953
-1.09997
-0.776707
-1.89055
-1.41281
-5.90152
-0.523524
-0.564162
-5.46305
-3.02092
-2.86167
-0.509157
-1.05948
-2.25522
-1.97107
-2.06389
-5.85948
-0.776643
-2.42207
-0.930649
-0.821681
-2.18732
-0.878306
-2.0972
-0.979773
-0.0492559
-1.82199
-1.32758
-0.824159
-1.06891
-0.83284
-0.410144
-1.05747
-1.51304
-2.11435
-0.828117
-0.929724
-1.43346
-2.67289
-1.98655
-0.351191
-0.812979
-0.47282
-1.30365
-2.49514
-0.477977
-2.17689
-2.12921
-0.893784
-0.947645
0.063732
-2.21231
-0.798844
-0.330953
-3.41833
-1.60735
-0.684695
-2.52425
0.0581326
-1.55045
-1.53502
-2.43367
-1.1335
-0.845148
-2.11873
-0.937646
-0.772508
-1.57986
-0.874598
-0.0448198
-2.82087
-3.3085
-5.74966
-0.509766
-1.42442
-4.94578
-0.627275
-1.0282
-6.67011
-5.91009
-3.12588
-1.32528
-4.34256
-3.58091
-0.731105
0.0661888
-3.50468
0.0380034
0.0574769
-2.0182
-2.05913
-0.655698
-2.41743
-3.11686
-0.588206
-0.667738
-0.461516
-1.87806
-0.582664
0.0602451
0.0637464
-2.1037
-0.53102
-0.783549
-0.98332
-4.14161
-1.02833
-0.339191
-0.733822
-7.12461
-0.88135
-0.665335
-0.861135
-0.45349
-2.17116
-2.72004
-0.64378
0.0428538
0.0304623
-5.31102
-3.72271
-2.29712
-0.689216
-0.51605
-6.1837
-1.80206
-0.0117614
-1.254
-3.05964
-5.42063
-1.29767
-0.674423
-1.6087
-0.330245
-2.18897
0.0204174
-1.92484
-1.03948
-2.33043
-3.89533
-0.727048
-3.15958
-0.913962
-3.27894
0.025945
-1.47993
-2.19731
-0.645492
-6.88875
-0.123972
-0.831123
-0.621016
-0.627523
-7.27305
-0.8274
-3.58845
-0.387829
-2.98414
-5.35814
-0.795428
-4.37589
0.0357947
-6.7631
-1.01006
-3.48788
-0.778418
-1.4081
-0.833531
-0.022289
-2.67568
-0.670229
-5.03713
-2.90691
-0.621036
-0.645535
-4.73081
-0.67375
-0.517521
-1.95236
-1.01019
-1.65315
-0.750406
-0.560726
-0.938658
-5.01382
-0.963629
-2.93643
-3.58099
-1.89649
-0.0883801
-5.42385
-4.13165
-3.64489
-3.47094
-3.99494
-0.748044
-0.810623
-7.78151
-0.758233
-0.492618
-6.99651
-0.597148
-0.0206193
0.0563721
-0.411934
-0.671634
-1.24973
-0.00363229
-1.21391
-6.1335
-0.57045
-1.81595
-7.63724
-2.22701
-3.72664
-1.57438
-0.904379
-0.786324
-0.633061
-2.19476
-3.01317
-4.60209
-0.873315
-4.02586
-1.63386
-1.09445
0.00209779
-2.00498
-0.960378
-1.34261
0.0347828
-5.46468
-1.19144
0.0413653
-3.93053
-0.676067
-1.65599
-4.45515
-2.09856
-6.6395
-4.59168
-1.0807
-4.92661
-4.75162
-0.642343
0.0316253
-6.64843
-2.00484
-3.76477
-7.63644
-0.313308
-0.394231
-1.21823
-0.800409
-4.94181
-7.42831
-2.05465
-0.435623
-2.1977
-3.78164
-0.687811
-0.835721
-0.938318
-7.88863
-7.50675
-0.391539
-7.50731
-3.21807
-5.50383
0.0615913
-4.70979
-2.59761
-1.3018
-1.77967
-7.72816
-8.12134
-0.530439
0.0177621
-1.1568
-4.11849
-0.694171
-1.28732
-8.33679
-7.83135
-0.329217
-3.92239
-2.24952
-0.312499
-5.21881
-5.89129
-2.30079
-8.02888
-7.65828
-0.727128
-0.753785
-2.75826
-1.66545
-0.450092
-2.07209
-2.42421
-2.34666
-7.9417
-0.0792575
-6.3707
-0.855722
-2.31252
-1.18489
-3.09204
-7.35353
-4.18057
-0.381068
-3.89092
-2.11717
-1.94043
-0.400079
-8.21333
-4.44993
0.0657423
-7.97043
0.0494789
-8.02401
-0.478769
-1.04554
-1.31893
-2.26839
-0.481562
-0.616256
-2.00688
-0.383677
-4.09234
-4.99033
-5.74889
-2.67079
0.0532296
-1.74946
0.0652121
-5.25247
-0.589511
-1.81081
-2.12426
-7.2966
-5.89636
-6.53006
-6.3327
0.0459723
-2.13128
-7.24535
-0.299777
-2.10122
-4.85872
-3.08415
-1.73167
-0.309437
-4.42664
-8.24294
-4.17742
-1.20605
-5.27482
-8.178
-2.98183
0.0647292
-3.28012
-1.61026
-1.17998
-7.14773
-0.940058
-1.09007
-4.28045
-8.05023
0.0621384
-0.210717
-5.12225
-0.106617
-3.11286
-0.94466
-0.801643
-0.75035
-3.48462
-1.4227
-6.70227
-2.84902
-0.799188
-0.0182678
-2.74751
-0.690402
-0.947224
-0.564834
-1.37661
-2.12545
-3.12488
0.0622003
-0.0147343
-2.35903
-1.59855
-2.71261
-4.10392
-4.15057
0.0569891
0.0289783
-3.38905
-2.56885
-1.35488
-6.2877
-3.67992
-2.81148
-0.778885
-0.687152
-0.59011
-0.0346326
-3.90008
-0.494898
-4.11688
-4.42923
-2.34022
-6.50664
0.0113555
-0.942564
0.0486954
-1.16218
-4.75214
-1.07817
-1.60354
-2.99843
-0.666084
-2.94827
-2.67924
-4.79355
-1.99621
-1.36039
-0.860616
-0.493782
-0.0188773
-6.51289
-2.58924
-2.65222
-1.16745
-2.1974
-4.17252
-1.16777
-1.04105
0.0669157
-0.611077
0.0588852
-0.673065
-0.980598
-8.0754
-4.42689
-4.57364
0.0336042
-1.03215
-1.03749
-0.89194
-0.71673
-6.96282
-2.95583
-0.604352
-2.27758
-4.42201
-1.11215
-2.3275
-6.36853
-1.93291
-5.41339
-1.84308
-1.75758
-3.00572
-6.85198
-3.47109
-2.26792
-6.52206
-0.458932
0.0619462
-3.81812
-1.09174
-1.55725
-2.85978
-3.99939
-1.1001
-8.22097
-8.15935
-8.24497
-7.75576
-6.40287
-0.819622
-1.31403
-6.19157
-6.94829
-1.71265
-0.550038
-2.57829
-1.10814
-2.58231
-1.58126
-1.78528
-1.24081
-6.57599
-4.40193
-2.50959
-0.963968
-2.60181
0.0613075
0.0099225
-1.13401
-4.23471
-2.66371
-0.134312
-3.07543
-2.50874
-3.94427
-5.06512
-4.81452
0.0626314
-1.35901
-5.01164
-4.84146
0.0521227
-4.27747
-3.23169
-4.47643
-4.22717
-4.97655
0.0554121
-0.595319
-0.741663
-0.76618
-0.726118
-4.36512
-6.96175
-0.418811
-5.12076
-0.63109
-4.97856
-0.113288
-3.5927
-0.551124
-0.515266
-2.74959
-0.671955
-2.23883
-0.50973
-0.377945
-3.56089
-3.10689
-6.16494
-2.44323
-2.40502
-1.17557
-3.84391
-4.54488
-0.402889
-1.55596
-0.426714
-5.67436
-1.63283
-5.52886
-1.47322
-0.267738
-4.53188
-1.15116
-2.96852
-2.8253
-3.62954
-0.61641
-0.443222
-1.22611
-0.142092
-6.28383
-6.87204
-6.10087
-0.700078
-1.93406
-0.527875
-1.08911
-1.18816
0.0606624
-0.0845706
-2.78691
-0.611983
-4.68579
-7.06556
-1.31845
-4.04567
-1.71751
-5.74896
-2.89525
-1.00949
-2.3765
-4.62468
-1.24353
-2.92921
-2.60418
0.0659876
-0.498271
-3.60525
-2.67245
0.05547
-1.06497
-2.63425
-0.0977754
-1.37138
-0.555751
-0.239966
-2.87723
-3.01501
0.0658748
-6.3701
-5.73577
-0.992865
-1.30699
-4.55112
-1.48854
-5.73439
-4.82163
-7.43659
-5.84309
-0.558066
-5.92501
-0.505497
-5.84923
-1.33103
0.0675103
-4.01923
-5.77152
-1.24279
-0.642897
-4.82121
-4.72953
-0.748557
-0.835801
-7.6965
-4.21306
-1.24418
-0.999553
-5.3076
-0.675543
-1.12585
-2.78992
-7.44358
-1.36813
-1.05874
-4.52145
-1.81467
-1.50078
-1.07827
-1.08495
-0.62727
0.0227298
-2.7675
-0.568943
-6.22599
-7.05341
-1.91163
-0.755917
-0.73969
0.0574135
-7.64425
-1.52141
-1.32267
-7.11493
-0.758996
-2.74842
-5.95517
-2.6649
-0.102423
0.0527694
-5.88734
-4.13534
-5.37337
0.0670829
-1.24677
-6.13786
-2.03528
-0.638423
-5.4461
-0.239248
-2.41853
-0.498083
-0.844907
-0.0607114
-5.84995
-3.48514
-4.94731
-1.08286
-6.00317
-0.903513
-2.60277
-6.73225
0.0115244
-6.86863
-5.54202
-6.04922
-6.10191
-6.23758
-6.24958
0.0352464
-1.15359
-2.46321
-1.13051
-2.04177
-6.05631
-0.93756
-6.32878
-6.32671
-6.1196
-6.0841
-3.40687
-6.63922
-3.20987
-1.28146
-4.05332
-0.889423
-6.58373
-6.5354
-6.6642
-6.16686
-6.37841
-6.67157
-0.509703
-6.55912
-0.97182
-6.70364
-1.63148
-6.43106
-3.3954
-5.77249
-5.2708
-2.66414
-0.644093
-5.47302
-0.69028
-2.64523
-5.41955
-1.08077
-0.0882387
-3.50114
-1.36104
-1.23312
-3.30271
-6.00299
-2.74686
-6.60495
-1.82544
-0.906559
-3.06061
-5.56856
-8.19508
-3.65933
-2.39606
-5.52324
-2.97802
0.0439726
-8.25341
-2.05573
-6.53672
-8.28719
-7.79779
-1.09736
-8.08007
-2.81705
-5.08223
-0.0483549
-2.88251
-4.57896
-1.13507
-3.10865
-0.933318
-1.31469
-3.02466
-1.69373
-4.2015
-1.84492
0.0465466
-1.11534
-3.05312
-2.18712
-2.77478
0.0565932
-2.43623
-2.55858
-3.56301
-3.4199
0.0429384
-1.44556
-0.0610775
-1.0852
-5.81029
-3.67068
-2.53913
-4.30084
-2.23543
-0.767693
-1.51559
-1.39583
-0.0354536
-0.115372
-1.38879
-2.90666
-0.62179
-0.754064
-0.0219768
-1.17432
-0.559166
-1.54498
-6.64047
-0.123923
-0.111318
-0.996319
-1.29159
-3.27648
-6.38875
-2.5366
-0.792975
-3.2931
-2.38514
0.0468417
-1.10003
-5.37131
-2.30962
-0.953152
-0.392637
-5.74406
-1.4355
-0.863454
-1.31474
0.0514446
-0.886709
-1.22609
-1.06602
-2.2933
-4.00073
-0.927485
-1.10471
-0.90613
-0.591735
-0.0257203
-6.59113
-3.04989
-4.39898
-1.14279
-7.31924
0.0545308
-0.168169
-2.11605
-0.580024
-0.177683
-0.0635078
-2.79619
-0.126934
-0.000217847
-2.55871
0.0506546
-3.40778
-0.754774
-2.23463
-4.09052
-1.92561
-1.94589
-3.75871
-5.44029
-6.47115
-6.54661
-4.91455
-0.761747
-0.889612
-0.813929
-3.75535
-3.12614
-5.57461
-2.00882
-0.271226
-0.762394
-0.800093
-0.0448339
0.0546869
-0.980036
-5.57281
-0.744251
-4.88506
-1.11651
-0.699015
-0.280595
-1.32324
-0.963097
-2.85159
-2.76176
-5.484
-6.47806
-0.93799
-0.886163
-0.0666511
-0.00488736
-3.66384
-1.84201
-2.13926
-0.0533434
-0.189873
-0.00637348
-2.05186
-0.985287
-0.0191374
-1.01676
-4.4969
-0.794452
-1.56877
-1.19064
-0.302234
-0.133203
-5.46268
-1.49847
-0.124292
-1.88935
-0.930149
-5.99481
-1.31911
-4.19243
-0.84433
-0.0820039
-3.04602
-1.8584
-0.0855252
-2.58948
-3.13902
-0.970098
-2.40848
-3.76173
-1.2742
-0.7241
-2.4946
-0.3964
-1.83988
-5.93694
-0.709587
-0.548586
-4.88355
-0.785928
0.0475019
-6.34923
-1.01877
-5.97017
-4.347
-6.71348
0.045317
-3.69548
-2.66072
-5.34464
-2.51269
-0.607682
-7.09454
-1.13756
-6.42466
-3.53587
-0.0608601
-0.118506
-5.58806
-6.49351
-1.54558
-1.63958
-2.56409
-0.994508
0.017906
0.0601391
-0.139633
-1.13977
-0.00614934
-3.40156
-0.686691
-0.902352
0.0460956
-2.65962
-0.323204
-1.22007
-2.87687
-5.0499
-0.449128
-6.63364
-5.8937
0.0614357
-0.13534
-0.459544
-0.369303
-0.980627
-2.38179
-1.28705
-0.880008
-0.690998
-0.860877
-0.797089
-0.363012
-3.44618
-0.878838
-0.82359
-1.08799
-5.03261
-0.847669
-1.33471
-6.28479
-3.83276
-0.966117
-0.152877
-2.60397
-3.15263
-7.26885
-5.4601
-0.570745
-6.89365
-0.536907
-7.43225
-5.80901
-1.37666
-1.86226
-2.99931
-0.304992
-0.342786
-0.845686
-1.19532
-6.79204
0.0571582
-0.104182
-7.19798
-0.297502
-0.604339
-0.796733
-0.968958
-2.65132
-5.23551
-1.07033
-0.0595376
-2.58878
-0.729098
-7.58953
-1.66772
-2.20263
-5.89055
-6.18242
-1.15851
-2.18766
-2.23868
-1.15773
-2.03417
-1.43451
-0.396026
-2.35135
-0.425842
-6.30378
-3.46588
-0.32922
-0.408223
-7.44515
-2.7338
-4.65462
-0.308176
0.003655
-1.24343
-1.37658
-5.35509
-0.148123
-2.08443
-1.67458
-4.07745
-0.656948
-0.7296
-1.3118
-1.06007
-1.55149
-7.20354
-1.51306
-1.1954
-8.06194
-2.46976
0.0650129
-1.88526
-7.86724
-7.13951
-0.766644
-1.23455
-3.36716
-1.17052
-0.615558
-1.45473
-1.61085
-0.496766
-3.83105
-1.4119
0.0669737
-0.950092
-1.62543
-7.98737
-1.07104
-0.119503
-0.981199
-0.00870413
-0.0916958
-2.55188
0.0165722
-5.82556
-2.50912
0.0183397
-4.17911
-6.55751
-1.35179
-3.64996
-1.36476
-1.83677
-2.3702
-4.71251
-8.16576
-0.377013
-0.0522665
-4.38455
-6.32933
-0.0515503
-1.18538
-1.01506
-3.97967
-3.34379
-0.0372558
-0.918911
-0.0172613
-1.19463
-1.24838
-1.54361
-4.49421
-1.59997
-4.51575
-1.75053
-1.73689
0.0628178
-1.96997
-2.24104
-2.96608
-1.35064
-0.0969728
-1.37226
-1.41223
-2.47392