<VTKFile type="UnstructuredGrid" version="0.1" byte_order="LittleEndian">
  <UnstructuredGrid>
    <Piece NumberOfPoints="14261" NumberOfCells="28043">
      <Points>
        <DataArray type = "Float64" NumberOfComponents="3" format="ascii">
3.5 2.00105 0.0 
3.5 1.99895 0.0 
0 0 0.0 
12 0 0.0 
0 4 0.0 
12 4 0.0 
1.9851 0.464008 0.0 
6.54577 2.37301 0.0 
1.4849 1.48276 0.0 
2.61845 1.4303 0.0 
3.46822 2.00422 0.0 
3.4492 2.00609 0.0 
9.75011 0.429191 0.0 
1.4359 2.05404 0.0 
3.4284 2.00811 0.0 
4.2924 2.85568 0.0 
3.40943 2.00992 0.0 
1.8447 1.95791 0.0 
3.39055 2.01171 0.0 
10.5646 0.785159 0.0 
3.37064 2.01358 0.0 
3.76085 1.38706 0.0 
3.94143 1.77338 0.0 
3.75 4 0.0 
3.3441 2.01602 0.0 
7.42978 0.938362 0.0 
3.32932 2.01737 0.0 
3.31416 2.01873 0.0 
4.50024 4 0.0 
3.30101 2.01991 0.0 
6.4956 2.24143 0.0 
6.21511 1.68343 0.0 
3.28104 2.02167 0.0 
11.443 2.87979 0.0 
3.26112 2.02341 0.0 
7.27082 2.03327 0.0 
7.00257 2.02554 0.0 
3.96427 1.04718 0.0 
3.23123 2.02597 0.0 
4.06872 1.84749 0.0 
8.28155 1.27045 0.0 
3.21131 2.02765 0.0 
3.20135 2.02848 0.0 
3.18889 2.02951 0.0 
3.17635 2.03053 0.0 
0.759789 2.22952 0.0 
6.45907 3.1942 0.0 
3.16034 2.03183 0.0 
3.15052 2.03262 0.0 
0.628639 2.20506 0.0 
1.7727 2.80467 0.0 
3.13957 2.03349 0.0 
8.2554 3.03856 0.0 
3.1296 2.03426 0.0 
3.59434 3.23904 0.0 
3.12171 2.03487 0.0 
9.07906 0.318794 0.0 
3.11166 2.03562 0.0 
9.78055 2.64968 0.0 
3.10169 2.03635 0.0 
8.08727 1.03907 0.0 
3.0922 2.03704 0.0 
9.87757 2.91797 0.0 
3.08224 2.03774 0.0 
7.9699 1.83369 0.0 
3.07177 2.03847 0.0 
3.05986 2.03927 0.0 
3.04983 2.03993 0.0 
4.25006 4 0.0 
3.03985 2.04058 0.0 
4.30691 0 0.0 
3.02987 2.04121 0.0 
8.66013 2.72876 0.0 
3.0199 2.04182 0.0 
3.00992 2.04242 0.0 
6.93534 2.09444 0.0 
3.00193 2.04289 0.0 
3.08598 1.86585 0.0 
3.28381 1.29007 0.0 
2.98711 2.04373 0.0 
2.29985 2.41326 0.0 
2.97747 2.04427 0.0 
2.59414 2.05835 0.0 
2.96958 2.04469 0.0 
3.47062 0 0.0 
2.96201 2.04509 0.0 
1.70928 1.85019 0.0 
2.95043 2.04569 0.0 
9.9963 2.9126 0.0 
2.94005 2.0462 0.0 
2.93089 2.04665 0.0 
8.89058 0.210933 0.0 
5.12633 4 0.0 
2.92007 2.04715 0.0 
9.25464 2.64568 0.0 
2.91208 2.04752 0.0 
4.90901 0.0899404 0.0 
10.8572 2.96282 0.0 
2.8996 2.04807 0.0 
2.8946 2.04828 0.0 
8.13323 0.520161 0.0 
2.88961 2.04847 0.0 
4.05783 1.64554 0.0 
2.88461 2.04866 0.0 
2.88003 2.04882 0.0 
5.28998 3.52134 0.0 
4.98419 0.77939 0.0 
2.87462 2.04899 0.0 
3.48486 3.07444 0.0 
2.86962 2.04914 0.0 
6.52954 2.17864 0.0 
5.00651 1.53894 0.0 
2.85755 2.04945 0.0 
2.86213 2.04934 0.0 
5.00296 2.24736 0.0 
11.0785 1.20913 0.0 
2.85213 2.04957 0.0 
2.99452 0.795181 0.0 
2.84714 2.04967 0.0 
5.12905 1.87395 0.0 
2.84214 2.04975 0.0 
2.83714 2.04983 0.0 
8.6679 0.834052 0.0 
2.7008 2.0473 0.0 
2.83214 2.04989 0.0 
2.82714 2.04994 0.0 
3.54706 2.96102 0.0 
2.81965 2.04999 0.0 
2.82215 2.04997 0.0 
5.55983 1.18487 0.0 
8.44465 0.813721 0.0 
2.81215 2.05001 0.0 
2.80472 2.05001 0.0 
2.79507 2.04997 0.0 
2.79965 2.05 0.0 
2.74971 1.15802 0.0 
12 2.76485 0.0 
2.78966 2.04993 0.0 
2.785 1.93817 0.0 
2.78466 2.04988 0.0 
9.45522 2.67434 0.0 
2.77966 2.04982 0.0 
7.88728 1.90278 0.0 
2.77466 2.04975 0.0 
1.39063 1.88061 0.0 
2.77216 2.04971 0.0 
2.76716 2.04961 0.0 
2.76467 2.04956 0.0 
8.49528 2.50007 0.0 
2.75967 2.04946 0.0 
2.75467 2.04934 0.0 
6.69534 2.37564 0.0 
2.74967 2.0492 0.0 
3.68248 0 0.0 
2.74468 2.04906 0.0 
9.51856 2.75585 0.0 
2.73968 2.04891 0.0 
2.73469 2.04874 0.0 
9.41426 2.76593 0.0 
2.73219 2.04865 0.0 
2.72719 2.04847 0.0 
2.72261 2.04829 0.0 
7.07481 1.96072 0.0 
6.66618 3.1835 0.0 
2.7172 2.04806 0.0 
8.83747 2.67733 0.0 
3.68688 2.43344 0.0 
2.71221 2.04785 0.0 
6.62 2.79701 0.0 
2.70472 2.0475 0.0 
2.67763 2.04605 0.0 
2.69045 2.04677 0.0 
2.69475 2.047 0.0 
3.01919 0.464385 0.0 
4.48418 1.12971 0.0 
2.68477 2.04646 0.0 
5.22315 1.80655 0.0 
7.99633 0.833019 0.0 
2.67479 2.04588 0.0 
9.04251 2.70224 0.0 
2.66978 2.04558 0.0 
2.6648 2.04526 0.0 
9.48102 3.02398 0.0 
2.65981 2.04494 0.0 
8.79605 3.01706 0.0 
2.65482 2.04461 0.0 
2.38028 1.40227 0.0 
2.64741 2.04409 0.0 
8.98557 2.77888 0.0 
8.27749 0.708363 0.0 
2.63986 2.04355 0.0 
1.66504 1.31716 0.0 
2.63239 2.04298 0.0 
6.43113 2.27328 0.0 
2.62498 2.0424 0.0 
8.23459 1.16471 0.0 
2.62242 2.0422 0.0 
6.25733 2.55364 0.0 
2.61495 2.04158 0.0 
9.08968 2.78231 0.0 
2.60755 2.04095 0.0 
9.42671 3.11439 0.0 
6.67586 2.27382 0.0 
2.60001 2.04028 0.0 
5.25422 2.73436 0.0 
2.58798 2.03916 0.0 
2.59254 2.03959 0.0 
4 4 0.0 
3.62692 1.98547 0.0 
8.97315 2.9414 0.0 
2.58259 2.03864 0.0 
9.42058 2.93769 0.0 
2.01585 3.15274 0.0 
2.57513 2.0379 0.0 
2.57264 2.03764 0.0 
2.57016 2.03735 0.0 
2.56768 2.03702 0.0 
2.56522 2.03662 0.0 
2.56276 2.03616 0.0 
2.56031 2.03565 0.0 
2.55788 2.03508 0.0 
2.55546 2.03446 0.0 
2.55305 2.03379 0.0 
2.55066 2.03307 0.0 
2.54828 2.0323 0.0 
2.54592 2.03148 0.0 
2.54357 2.03062 0.0 
2.54124 2.02971 0.0 
2.53893 2.02876 0.0 
2.53664 2.02777 0.0 
2.53436 2.02674 0.0 
2.5321 2.02567 0.0 
2.52986 2.02456 0.0 
2.52764 2.02342 0.0 
2.52544 2.02224 0.0 
2.52325 2.02103 0.0 
2.52108 2.01978 0.0 
2.51893 2.01851 0.0 
2.5168 2.0172 0.0 
2.51469 2.01587 0.0 
2.51259 2.01451 0.0 
2.51052 2.01312 0.0 
2.50845 2.0117 0.0 
2.50644 2.01022 0.0 
2.50456 2.00858 0.0 
2.50283 2.00678 0.0 
2.50139 2.00474 0.0 
2.50037 2.00246 0.0 
2.5 2 0.0 
2.50037 1.99754 0.0 
2.50139 1.99526 0.0 
2.50283 1.99322 0.0 
2.50456 1.99142 0.0 
2.50644 1.98978 0.0 
2.50845 1.9883 0.0 
2.51052 1.98688 0.0 
2.51259 1.98549 0.0 
2.51469 1.98413 0.0 
2.5168 1.9828 0.0 
2.51893 1.98149 0.0 
2.52108 1.98022 0.0 
2.52325 1.97897 0.0 
2.52544 1.97776 0.0 
2.52764 1.97658 0.0 
2.52986 1.97544 0.0 
2.5321 1.97433 0.0 
2.53436 1.97326 0.0 
2.53664 1.97223 0.0 
2.53893 1.97124 0.0 
2.54124 1.97029 0.0 
2.54357 1.96938 0.0 
2.54592 1.96852 0.0 
2.54828 1.9677 0.0 
2.55066 1.96693 0.0 
2.55305 1.96621 0.0 
2.55546 1.96554 0.0 
2.55788 1.96492 0.0 
2.56031 1.96435 0.0 
2.56276 1.96384 0.0 
2.56522 1.96338 0.0 
2.56768 1.96298 0.0 
2.57016 1.96265 0.0 
2.57264 1.96236 0.0 
2.57513 1.9621 0.0 
2.58259 1.96136 0.0 
7.39884 0.820131 0.0 
2.58998 1.96065 0.0 
5.50216 4 0.0 
2.59503 1.96018 0.0 
2.60001 1.95972 0.0 
3.89351 3.20983 0.0 
2.60499 1.95928 0.0 
2.60997 1.95884 0.0 
6.48053 3.12004 0.0 
2.61495 1.95842 0.0 
2.61993 1.95801 0.0 
8.75781 2.27966 0.0 
2.62491 1.9576 0.0 
2.62989 1.95721 0.0 
6.05757 2.47597 0.0 
2.63488 1.95683 0.0 
2.63986 1.95645 0.0 
2.64485 1.95609 0.0 
4.49088 0.755642 0.0 
2.64983 1.95574 0.0 
2.6623 1.9549 0.0 
2.65482 1.95539 0.0 
2.65981 1.95506 0.0 
8.17613 1.24546 0.0 
8.32922 1.37667 0.0 
2.66729 1.95458 0.0 
11.2956 1.25205 0.0 
8.75583 0 0.0 
2.67228 1.95427 0.0 
2.67727 1.95397 0.0 
10.335 2.25711 0.0 
2.68475 1.95354 0.0 
2.40556 2.53487 0.0 
2.69217 1.95314 0.0 
11.1454 3.21 0.0 
2.69723 1.95288 0.0 
2.69973 1.95275 0.0 
4.8962 1.06846 0.0 
2.70715 1.95239 0.0 
5.90858 0.820141 0.0 
8.53183 3.78774 0.0 
2.71221 1.95215 0.0 
2.7172 1.95194 0.0 
2.97633 2.66185 0.0 
2.7222 1.95173 0.0 
6.95295 3.88552 0.0 
2.72719 1.95153 0.0 
5.32901 2.82744 0.0 
10.5184 4 0.0 
2.73219 1.95135 0.0 
2.73718 1.95118 0.0 
2.11601 2.60377 0.0 
5.31225 1.48188 0.0 
2.74218 1.95102 0.0 
8.5986 0.516492 0.0 
2.74967 1.9508 0.0 
2.76007 1.95054 0.0 
2.7571 1.9506 0.0 
5.77976 1.61945 0.0 
1.27321 0 0.0 
2.76467 1.95043 0.0 
2.76966 1.95034 0.0 
6.6018 2.00745 0.0 
2.77216 1.95029 0.0 
2.77716 1.95021 0.0 
2.77966 1.95018 0.0 
2.78466 1.95012 0.0 
2.79209 1.95005 0.0 
2.39013 1.91426 0.0 
2.79715 1.95001 0.0 
1.90385 2.93787 0.0 
2.87858 1.47958 0.0 
2.80215 1.94999 0.0 
2.80715 1.94998 0.0 
11.6154 4 0.0 
2.81215 1.94999 0.0 
2.81715 1.95 0.0 
4.65152 1.4272 0.0 
6.537 2.04355 0.0 
10.1649 1.65289 0.0 
2.82215 1.95003 0.0 
2.82714 1.95006 0.0 
2.82964 1.95009 0.0 
1.95141 1.68591 0.0 
2.83707 1.95017 0.0 
2.84464 1.95029 0.0 
2.84964 1.95038 0.0 
7.18039 3.01198 0.0 
2.85463 1.95048 0.0 
1.81756 3.15854 0.0 
6.45076 2.55191 0.0 
2.86213 1.95066 0.0 
2.86713 1.95079 0.0 
4.54302 0.878998 0.0 
2.87212 1.95093 0.0 
2.87712 1.95109 0.0 
5.92551 2.39886 0.0 
2.88211 1.95125 0.0 
7.52041 1.95005 0.0 
2.88711 1.95143 0.0 
3.94596 1.96105 0.0 
2.8921 1.95162 0.0 
12 1.23459 0.0 
2.8971 1.95183 0.0 
1.6965 1.21708 0.0 
2.90417 1.95213 0.0 
2.91208 1.95248 0.0 
3.03273 0.591157 0.0 
2.92207 1.95294 0.0 
4.98013 2.59309 0.0 
2.93157 1.95339 0.0 
1.73985 0 0.0 
2.94154 1.95387 0.0 
2.95152 1.95437 0.0 
1.72503 1.71492 0.0 
2.96201 1.95491 0.0 
2.0065 3.05805 0.0 
2.9715 1.95541 0.0 
8.21919 1.62771 0.0 
2.98147 1.95595 0.0 
0.966707 1.21788 0.0 
2.99145 1.95651 0.0 
2.48713 1.20211 0.0 
3.00193 1.95711 0.0 
4.96333 3.12353 0.0 
3.01143 1.95767 0.0 
6.74864 3.04848 0.0 
3.02139 1.95827 0.0 
2.41844 0.549707 0.0 
3.03137 1.95889 0.0 
2.52184 4 0.0 
3.04135 1.95952 0.0 
3.04701 0.821024 0.0 
3.05132 1.96016 0.0 
2.10799 3.14054 0.0 
3.0618 1.96086 0.0 
6.67764 1.24793 0.0 
3.07177 1.96153 0.0 
0.769062 1.4551 0.0 
3.08126 1.96219 0.0 
2.55402 2.10759 0.0 
3.09172 1.96293 0.0 
3.09837 1.96341 0.0 
10.1159 4 0.0 
8.76544 2.38276 0.0 
3.11166 1.96438 0.0 
6.44646 2.19183 0.0 
3.12114 1.96509 0.0 
3.1311 1.96585 0.0 
6.86748 2.2434 0.0 
3.14156 1.96667 0.0 
4.12972 2.10797 0.0 
3.15104 1.96742 0.0 
8.26271 1.45414 0.0 
2.37126 2.58874 0.0 
3.17146 1.96907 0.0 
1.86012 1.10308 0.0 
3.18336 1.97004 0.0 
3.18639 1.96872 0.0 
3.20135 1.97152 0.0 
3.22072 1.97314 0.0 
9.08029 0.968653 0.0 
3.77061 2.2698 0.0 
3.23123 1.97403 0.0 
1.96375 2.85266 0.0 
3.24555 1.97525 0.0 
8.58402 0.30847 0.0 
3.26112 1.97659 0.0 
2.72907 2.38002 0.0 
3.39165 2.03388 0.0 
3.28104 1.97833 0.0 
0 3.32242 0.0 
2.83805 2.07443 0.0 
3.30038 1.98003 0.0 
2.4825 3.20722 0.0 
3.57932 2.15777 0.0 
3.31787 1.9816 0.0 
8.37508 1.48322 0.0 
3.33233 1.9829 0.0 
3.57 1.2268 0.0 
8.68938 1.7583 0.0 
3.35073 1.98458 0.0 
1.50522 0 0.0 
3.37064 1.98642 0.0 
1.04781 0 0.0 
1.96211 2.17334 0.0 
3.39055 1.98829 0.0 
3.51257 2.44484 0.0 
10.3114 4 0.0 
3.41483 1.99059 0.0 
6.59792 1.73349 0.0 
3.42937 1.99199 0.0 
[...]
<PointData>
  <DataArray type = "Float64" Name="BLMLevelSetLayer1" format="ascii">
0.0810092
0.0810092
-3.11868
-8.65087
-3.11868
-8.65087
-1.52462
-2.98739
-1.05736
-0.445341
0.081009
0.0810107
-6.36322
-0.985621
0.0810089
-1.08445
0.0810096
-0.576739
0.0810092
-7.08708
0.0810092
-0.584165
-0.414714
-1.93351
0.0810089
-3.98937
0.0810092
0.0810094
-2.15423
0.0810108
-2.92422
-2.65237
0.0810093
-7.91044
0.0810092
-3.68995
-3.42164
-0.977963
0.0810092
-0.507538
-4.75572
0.0810092
0.0810092
0.0810086
0.0810098
-1.67503
-3.10955
0.0810095
0.0810099
-1.80242
-1.00072
0.0810086
-4.78626
0.0810085
-1.16023
0.0810094
-5.74555
0.0810092
-6.23295
0.0810092
-4.60561
0.0810093
-6.36214
0.0810093
-4.39194
0.0810093
0.0810087
0.0810086
-2.05403
0.0810085
-2.07466
0.0810085
-5.13018
0.0810085
0.0810086
-3.3556
0.0810093
-0.0154237
-0.604954
0.0810077
-0.370423
0.0810079
0.0624676
0.0810081
-1.90632
0.0810092
-0.724269
0.081009
-6.47893
0.0810085
0.0810104
-5.59837
-2.49595
0.0810086
-5.70962
0.0810092
-2.29167
-7.33879
0.0810052
0.0810055
-4.78249
0.0810054
-0.579349
0.0810054
0.0810071
-2.26746
-1.83997
0.0810054
-0.985879
0.0810054
-2.95374
-1.49417
0.081005
0.0810092
-1.442
-7.53853
0.0810098
-1.07888
0.0810039
-1.55283
0.0810098
0.0810039
-5.21655
0.0810097
0.0810092
0.0810039
-0.878916
0.0810053
0.0810093
-2.13386
-5.0037
0.0810098
0.0810055
0.081006
0.0810048
-0.71155
-8.45324
0.0810054
0.0690654
0.0810054
-5.91215
0.0810054
-4.30733
0.0810054
-1.03565
0.0810093
0.0810039
0.0810054
-4.93913
0.0810048
0.0810054
-3.13621
0.0810054
-1.92618
0.0810054
-5.9847
0.0810049
0.0810054
-5.8825
0.0810092
0.081004
0.08101
-3.49401
-3.29877
0.081004
-5.29914
-0.390039
0.0810093
-3.13893
0.081006
0.0810069
0.0810082
0.0810061
-1.41049
-1.23207
0.0810061
-1.65285
-4.56403
0.0810061
-5.50568
0.0810055
0.081006
-5.98686
0.081006
-5.31162
0.081006
-0.508807
0.0810049
-5.45943
-4.86773
0.0810054
-0.995695
0.0810092
-2.86274
0.081006
-4.72652
0.0810092
-2.73114
0.0810059
-5.563
0.0810047
-5.94936
-3.10654
0.0810053
-1.82031
0.0810055
0.0810092
-1.97952
-0.0466269
-5.47233
0.0810093
-5.9132
-1.15864
0.080999
0.0810092
0.080927
0.0808924
0.0809221
0.0810092
0.0809271
0.0809004
0.0809282
0.0810092
0.080934
0.0809096
0.0809352
0.0810093
0.0809412
0.0809193
0.0809423
0.0810092
0.0809481
0.0809285
0.0809495
0.0810092
0.0809542
0.0809371
0.0809557
0.0810092
0.0809598
0.0809399
0.0809632
0.0810092
0.080655
0.0804971
0.080575
0.0810092
0.0799964
0.0796224
0.0799964
0.0810092
0.080575
0.0804971
0.080655
0.0810092
0.0809632
0.0809399
0.0809598
0.0810092
0.0809557
0.0809371
0.0809542
0.0810092
0.0809495
0.0809285
0.0809481
0.0810092
0.0809423
0.0809193
0.0809412
0.0810093
0.0809352
0.0809096
0.080934
0.0810092
0.0809282
0.0809004
0.0809271
0.0810092
0.0809221
0.0808924
0.080927
0.0810092
0.080999
0.0810093
-3.99214
0.0810059
-2.74821
0.0810053
0.0810058
-1.19021
0.0810053
0.0810058
-3.10265
0.0810053
0.0810059
-5.18418
0.0810054
0.0810059
-2.52028
0.0810054
0.0810059
0.0810059
-1.50885
0.081006
0.0810101
0.0810055
0.0810059
-4.65543
-4.78813
0.0810048
-7.75029
-5.54212
0.0810092
0.0810048
-6.75874
0.0810056
-0.441331
0.0810097
-7.65937
0.0810049
0.0810061
-1.59685
0.081005
-2.60057
-5.25861
0.0810093
0.081004
-0.535676
0.0810098
-3.85271
0.081004
-1.92603
-7.21653
0.0810092
0.081004
-0.629314
-1.80356
0.0810092
-5.22873
0.0810054
0.081007
0.0810041
-2.23012
-2.2595
0.0810048
0.0810054
-3.02079
0.0810093
0.081004
0.0810054
0.0810048
0.0810098
-0.0566124
0.081004
-1.02503
-0.390343
0.0810092
0.0810039
-8.27696
0.0810098
0.0810045
-1.20464
-2.95629
-6.59289
0.0810093
0.0810039
0.0810054
-0.549998
0.0810041
0.0810048
0.0810054
-3.7357
0.0810054
-1.25749
-2.92073
0.0810092
0.0810039
-1.44941
0.0810098
0.0810039
-2.37691
0.0810098
-3.93969
0.0810039
-0.36656
0.0810098
-8.45329
0.0810042
-1.03855
0.0810084
0.0810092
-1.28457
0.0810092
-1.51314
0.0810093
-2.04606
0.0810093
0.0810093
-0.744414
0.0810092
-1.07752
0.0810093
-4.65276
0.0810094
-1.63933
0.0810094
-0.684031
0.0810093
-1.76325
0.0810094
-3.33231
0.0810094
-1.34003
0.0810094
-1.8789
0.0810094
-1.05581
0.0810094
-1.11133
0.0810092
-3.18418
0.0810093
-1.73358
0.0810093
0.00907089
0.0810092
0.0810083
-6.83025
-5.19825
0.0810092
-2.87163
0.0810094
0.0810094
-3.29518
0.0810092
-0.557726
0.0810092
-4.71276
-0.502956
0.0810093
-1.01624
0.081009
0.0794494
0.0810092
0.08101
-5.5936
-0.30038
0.0810092
-0.920915
0.0810087
-5.27669
0.0810092
-0.250282
0.058841
0.0810093
-2.74622
0.0563895
0.0810093
-1.0918
-0.0946466
0.0810088
-4.82127
0.0810092
-0.694268
-5.11395
0.0810092
-2.14439
0.0810092
-2.38613
-0.484011
0.0810092
-0.361842
-7.01764
0.0810088
-3.02826
0.0810093
-1.95908
0.0810088
-0.49154
-3.24979
0.0810094
-0.913236
-2.38572
-0.00556433
-2.92728
-2.74505
0.032703
-0.887301
-2.15255
-2.67165
-1.96724
-0.945731
-0.68428
-2.89265
-1.21829
-3.86082
-2.38085
-2.15967
-2.26769
-2.90113
-4.79286
-1.08564
-4.54941
-0.349258
-5.93082
-6.13488
-7.41822
-7.82834
-3.99024
-6.03504
-5.01488
-1.26032
-0.976089
-7.02451
-3.34783
0.0377571
0.0438112
-0.461419
-6.7818
-0.984112
-8.13958
-2.96894
-8.45447
-2.46894
-1.1157
-0.779785
-1.87013
-2.83839
-8.41904
-8.421
-8.40771
-1.98676
-0.414924
-0.403698
-1.91616
-0.978411
-8.48397
-6.20625
-0.702903
-7.62159
0.00320494
-4.52179
-3.9041
-8.51026
-8.55015
-8.59706
-7.92263
-0.627071
-0.471283
-1.1013
-0.80962
-2.51678
-2.59014
0.0135155
-0.229079
-0.701586
-2.57984
-0.792516
-0.320431
-0.13026
-1.16132
-0.748109
-4.02852
-2.05881
-2.02764
-2.90499
-0.377795
-2.15535
-1.87116
-4.69801
-1.8986
-0.721027
-2.84902
-3.04289
-3.77599
-1.93308
-2.47827
-2.27508
-1.8697
-0.0178001
-1.88823
-1.00687
-0.983805
-2.96905
-2.46786
-2.74505
-2.69549
-0.566125
-2.41475
-2.57332
-0.527673
-0.752839
-2.92728
0.0661635
-1.0991
-4.84711
-2.32077
-5.18269
-2.96905
-2.43237
-2.42038
-2.43237
-6.41846
-2.52904
-2.6111
-2.7132
-2.83322
-4.56465
-5.60587
-0.824121
0.00291973
-4.76516
-6.48572
-7.45447
-5.25991
-5.09487
-2.70362
-2.49584
0.00775633
-5.50963
-4.88935
-5.00968
-5.44051
-1.85324
-0.214396
-5.45745
-1.74145
-3.37945
-2.73516
0.0325351
-7.59636
-0.0421049
-0.531912
0.0391872
-2.70543
-0.468919
-6.99515
-5.13036
-1.25042
-1.65732
-5.17507
-4.18783
-4.72554
-1.49404
-0.0259609
-0.311913
-0.801932
-3.2938
-7.82358
0.0266389
-3.78677
0.0683558
-0.625517
-3.51677
0.0626128
-1.82888
-0.267594
-0.399988
-1.99942
-3.29817
-3.06671
-0.676923
-5.47826
-2.89879
-1.24465
-1.48977
-2.85589
-0.283664
-4.24517
0.00532787
0.0193661
-2.86734
-3.27652
-5.22926
-5.35587
-1.46439
-5.25164
-1.59941
-0.25724
-1.72338
-4.62016
-3.09185
-5.0663
-1.20211
-6.21231
-1.72837
-0.133479
-1.05623
-1.06426
-3.037
-3.27107
-5.65161
-4.8868
-3.03627
-3.15544
-0.589548
-0.333001
-3.58385
-4.97444
-0.447331
-2.91279
-6.81407
-0.25059
-4.68613
0.0522092
-4.99086
-2.56764
0.0710348
-0.916705
-3.60208
-0.576126
-2.72769
-2.36681
-1.82241
-0.543133
-0.050829
-1.26756
-3.54707
-0.00482124
0.0484201
-0.731674
-0.176197
-2.83326
-0.234368
-2.81289
-3.17134
-1.05125
-4.87991
-2.78183
-0.239067
-4.99568
-3.47715
-2.36875
-2.44446
-1.89286
-1.56691
-0.820604
-1.57637
-0.796283
-5.03924
-4.65917
-2.87873
-1.64924
-7.81989
-2.87196
-4.54642
-4.57677
-4.85199
0.0390488
0.0066791
-4.93058
-3.31884
-5.83884
-0.108684
-0.285354
-2.97428
-1.00438
-0.681047
-3.26
-0.749916
-4.51862
-5.0785
-7.28274
-0.0498808
-1.20234
0.00425679
-0.427844
0.0635051
-3.00799
-0.312256
-1.95866
-0.356401
-2.79864
-1.18425
-0.30951
-0.405306
-0.78526
-3.25912
-8.38782
-3.90538
-2.85885
-0.588011
-1.16679
-0.725238
-2.19608
-1.41974
-0.500613
-0.302488
-1.4088
-2.08388
-1.99942
-0.350541
-0.837289
-0.647488
-1.35158
-0.235219
-0.999977
0.0349444
-2.55862
-2.92801
-4.6748
-0.583575
-1.82266
-0.0179102
-3.42607
-1.27703
0.0415401
-0.405399
-0.493609
-0.299768
-2.40484
-5.68927
-3.16195
-2.46051
-0.928215
-3.40724
0.0137484
-0.577457
-4.4569
-0.874252
-0.33301
-8.18637
0.0696612
-5.20692
-7.67545
-1.4121
-1.61022
-2.29274
0.0661506
-0.590168
-3.56331
-4.30096
-2.49557
-7.60719
-0.451532
-8.06271
-0.154962
-7.89179
-0.765255
-2.1312
-0.796577
-8.09791
-1.60476
-3.54152
-7.84613
-4.39381
-8.17631
-0.830434
-0.748635
-1.46373
-3.22844
-1.29799
-8.06126
-1.9979
-0.470954
-0.0439733
-0.670435
-6.41802
-3.50546
-0.953749
-3.10368
-1.4981
-1.52987
-2.78313
-0.546955
-0.218674
-6.98935
-0.552981
-8.32804
0.0343006
-8.34474
-2.46358
-5.16163
-1.40809
-1.27361
-1.7476
-4.39068
-6.29365
-1.43761
-3.30662
-0.173806
-0.774472
0.0688388
-0.196756
-2.35805
-2.99206
0.0666742
-0.899443
-0.450641
-1.137
-1.31123
-1.67371
-3.60122
-0.063914
-2.29744
-3.13873
-1.65242
-2.44241
-1.21862
-2.27304
-1.39267
-1.73107
-2.4545
-1.38472
-0.765386
-2.06742
-0.590662
-2.70242
-0.0175197
-1.4426
-4.96564
-5.15012
-1.2061
-5.2747
-2.10294
-4.95739
-3.22223
-1.79707
-0.928759
-6.66137
-6.14208
0.0214262
-0.0645445
-6.07491
-0.0456877
-2.68279
-2.27288
-0.420611
-5.01104
-3.32275
-3.81908
-1.15689
-1.68068
-0.43711
-6.12656
-0.953824
-2.73006
-3.4052
-3.05636
-1.47294
-0.417918
-2.36306
-1.6136
-6.20778
-5.14753
-2.04931
-0.830595
-5.0431
-0.648518
-1.08774
-2.65011
-1.35511
-1.93359
-1.24225
-6.34024
-3.30074
-1.49723
-5.081
0.0157872
-5.72263
-6.60806
-2.09377
-6.40696
-6.17793
-0.407854
-3.97947
-0.827071
-0.00444602
-3.20539
-0.528362
-2.0875
-0.632991
-2.87488
0.0454766
-2.34459
-4.01873
0.0706863
-2.74954
-3.33946
-1.54664
-5.47872
-0.378758
-2.55049
-0.175656
-0.383986
-0.880833
-0.790317
-2.18318
-1.891
-1.0307
0.0479267
-1.91279
-2.90602
-1.08647
-0.763206
-1.87704
-1.39931
-1.38956
-0.435043
-0.947004
-5.44955
-1.21093
-2.84817
-0.495656
-1.04598
-0.509191
-1.95756
-2.05039
-5.84598
-3.00563
-2.40856
-0.766993
-0.808179
-2.17382
-0.920375
-2.24123
-0.00525019
-0.72256
-0.0376921
-5.59449
-1.30897
-1.05541
-3.51202
-0.396642
-1.80647
-1.49954
-2.10085
-0.0809743
-0.916222
-0.968876
-0.811411
-1.41497
-0.337689
-0.799478
-0.459318
-0.82283
-2.48164
-4.43819
-2.16339
-2.11571
-2.04285
-0.934143
0.0772336
-2.19881
-1.23288
-0.317451
-4.64645
-0.464786
-0.194506
-2.51075
0.0716342
-1.53694
-1.52152
-2.42017
-1.12
-0.831647
-2.10523
-6.20132
-0.922865
-1.56636
-0.79015
-0.0313183
-1.29015
-3.29499
-5.73616
-2.80735
-4.30004
-1.04262
-0.613773
-0.550493
-4.7637
-5.89659
-1.41097
-0.88222
-4.32906
-3.56741
-2.93278
-0.495972
-6.65659
-1.59392
-0.861163
0.0649543
-2.04562
-0.674134
-2.40393
-3.10336
-0.574704
-0.716838
-0.448015
-1.31124
-2.87162
-0.847569
-0.645264
-2.0902
-1.86637
-0.770047
-0.515596
-4.1281
-1.01483
-0.325689
-0.72032
-7.11111
-0.867849
-0.651833
-0.847634
-0.645213
-2.15766
0.0510757
-0.571841
-2.70653
-3.11232
0.0441911
-4.93227
-2.28362
-0.675714
-0.621848
-5.29795
-1.78856
0.0713767
-1.2405
-1.97306
-0.813889
-1.28416
-0.660921
-1.5952
-0.800573
-2.17547
0.0339189
0.0557715
-1.02597
-2.31693
-0.316301
-6.26258
-3.14608
-0.900461
-3.26544
-0.714413
-1.46643
-3.88226
-0.631991
-6.87525
-2.18647
-0.109751
-0.496128
-0.614021
-7.25955
-1.02092
-3.57495
0.0738689
-0.814032
-5.34464
0.00300763
-0.380669
0.0375438
-6.74959
-0.813694
-3.47438
-0.998462
-4.3597
-2.81824
-0.619467
-0.00810156
0.0771809
-5.02362
-0.765032
-0.607535
-1.39487
-4.71731
-3.23118
-5.40711
-1.93886
-0.96626
-1.63965
-0.660361
-3.04613
-0.925156
-5.00032
-0.782727
-2.92292
-3.56749
-1.88299
-0.0748786
-0.500162
-4.11815
-0.816045
-3.45744
-3.98144
-6.17019
-0.797121
-7.76801
0.0795376
-0.479116
-6.98301
-0.583646
-0.00711781
0.0698736
-0.398432
-0.740679
-0.761822
0.0500143
-1.20041
-0.950133
-0.556949
-1.80245
-7.62373
-2.2135
-0.654232
-4.75592
-0.890877
0.0100423
-3.7032
-2.18126
-2.99967
-0.733648
-0.859813
-4.01236
-1.62036
-1.08095
-4.58816
0.0164697
-0.774635
-0.65501
-0.556529
-5.45118
-1.17794
-4.07789
-3.91702
-1.56347
0.050118
-4.44164
-1.64492
-6.626
-0.996961
-0.6625
-0.744784
-4.73811
-0.950702
-0.630454
-6.63493
-0.444159
-3.75126
-7.62294
-0.620554
-3.71395
-1.20473
-1.32981
-5.10831
-7.41481
-2.04115
-0.422121
-4.57803
-3.76814
-0.674309
-0.822219
-2.1895
-7.87513
-7.49324
-0.378037
-7.49381
-2.433
-1.99222
0.0451466
-4.69628
-2.58411
-0.926452
-3.20439
-7.71466
-8.10784
-3.63164
-1.77479
-1.28545
0.0750896
-0.680669
-2.28344
-8.32329
-7.81785
-0.315716
-3.90889
-2.23602
-0.378817
0.056373
-4.90987
-5.20531
-8.01538
-7.64478
-0.297263
-1.27073
-0.516964
-1.65195
-0.436591
-5.88802
-2.4107
-2.33316
-7.9282
-0.300588
-6.35719
-2.28602
-0.0680959
-1.23806
-3.07854
-7.34003
-4.16707
-1.17277
-3.87742
-3.07151
-1.92692
-5.87777
-8.19983
-4.43643
-0.370248
-7.95693
0.0629804
-8.01051
-0.386053
-4.10501
-1.03607
-2.10032
-0.46806
-0.473148
-1.99338
-0.370175
-4.07884
-4.97683
-5.73539
-0.841161
-2.07025
-1.73596
-2.2984
-5.23897
-0.597629
-0.785489
-2.65775
-7.2831
-5.88286
-6.51656
-2.74421
-0.74445
-2.41881
-7.23184
0.0595784
-2.08772
-4.42047
-3.07065
-3.52135
-4.67345
-3.65182
-8.22943
-0.287602
0.0310103
-4.8452
-8.16449
-0.627626
-1.30468
-3.26662
-1.59676
-0.297211
-7.13423
-0.926557
0.0783425
-4.26695
-8.03673
0.07564
0.079171
-0.700266
-1.12859
-3.09936
-2.96842
-0.926973
-5.95933
-3.47111
-1.4092
-6.68877
-1.79729
-3.51907
-0.202057
-2.73401
-0.0909655
0.0786989
-0.736817
-0.790385
-2.11195
-3.11138
-0.681051
-0.554014
-2.34552
-1.58504
-2.69911
-4.09042
0.066287
0.0704907
-0.575632
-3.37555
-2.55535
-1.34138
-1.06539
-1.71711
-0.787298
0.0428082
-0.673651
-0.576608
-0.0211311
-3.88658
-0.481397
-4.10338
-4.41573
-2.32672
-6.49313
-4.13703
-0.929063
-3.66673
-0.765036
-4.73864
-0.0043164
-1.59004
-2.98493
0.0247179
-2.93477
-1.14789
-4.78005
-1.98271
-1.34689
0.0622607
-1.07638
-0.652287
-1.16048
-0.00120433
-2.83555
-0.475882
-2.1839
-4.15902
-2.5756
-1.06529
-2.66905
-5.37415
-1.03502
-0.659564
0.07582
-8.0619
-4.41338
-4.56014
-0.602049
-0.847521
-1.15427
-0.878438
0.0475837
-6.94932
-2.94233
-0.590851
-0.701411
-4.40851
-3.21222
-2.314
-6.35502
-5.78761
-1.18223
-1.36049
-1.74408
-0.934973
-6.83848
-1.92181
-2.25442
-6.50856
-0.44543
0.0754478
-3.80462
-0.00343445
-1.54375
-2.84628
-3.98589
-1.0866
-8.20747
-8.14585
-8.23147
-7.74226
-6.38937
-6.12
-1.30053
-6.17807
-6.93479
-1.0804
-3.45822
-2.56479
-1.09464
-1.15403
-5.71776
-1.77178
-1.5635
-6.56249
-4.38843
-2.49609
-2.25832
-2.58831
0.0748091
0.0724554
-4.91311
-4.2212
-2.65021
-0.120811
-3.06193
-2.49524
-3.93077
-5.05162
-4.80102
-0.967785
-4.53019
0.0763744
-4.82796
0.0656243
-2.57097
-3.21819
-1.94769
-4.21367
-4.45828
-4.26696
-0.581817
-0.728162
-0.752678
-1.09018
-4.35161
-6.94824
0.0691965
-5.10726
-0.951444
-4.96506
-0.0997861
-6.03951
-0.537622
0.0256256
-2.73609
-0.709855
-3.57964
-2.22382
-0.610327
-3.54739
-0.658457
-6.15144
-1.02406
-2.39152
-1.12051
-3.83041
-4.53137
-0.499693
-1.54245
-0.409031
-0.806749
-1.61933
-5.51536
-4.52666
-0.364089
-4.51838
-0.413849
-2.95502
-2.81179
-6.3192
-0.602909
-0.493001
-1.13462
-2.42977
-6.27033
-6.85854
-0.385486
-3.152
-0.687815
-0.536719
-1.34193
-1.21146
-1.46114
-0.071069
-1.17359
-3.61568
-4.67229
-7.05206
-1.30494
-1.22924
-0.25461
-5.73546
-4.03217
-1.07491
-1.00891
-4.61118
-1.70629
-0.127346
-2.59068
0.0794891
-0.484769
-3.59175
-2.65895
-0.600505
-2.88232
-0.435531
-0.982617
-1.35788
-0.505972
-0.226464
-1.69884
-3.00151
-0.0828545
-6.3566
-5.72226
0.0801978
-1.29349
-2.8638
-1.47504
-0.54213
-4.80813
-7.42309
-5.82958
-0.983668
-5.91151
-0.491995
-5.83573
-1.31753
0.0810119
-4.00572
-5.75801
-1.22929
0.0692087
-5.66085
-4.71603
-4.80783
-5.75976
-7.68299
-0.734563
-0.821029
-5.03213
-5.81174
-4.19955
-5.29407
-4.16395
-7.43008
-0.543678
-1.16481
-4.50795
-1.80117
-1.22879
-5.47428
-1.06485
-1.11374
-2.77449
0.0363097
-0.613675
-1.05777
-7.0399
-0.633221
-0.988061
-0.726188
-4.41503
-7.63075
-0.663382
-6.21248
-7.10143
-5.67611
0.0743871
-5.94166
-2.6514
-0.0889212
-5.56957
-5.87384
0.066331
-5.35987
-5.45625
-1.23327
-6.12436
-2.02178
-0.624922
-5.4326
-4.1207
-2.40503
-0.747067
-0.484794
0.080437
-5.83645
-3.47164
-1.07107
-4.83481
-5.98967
-0.890011
-2.58927
-6.71874
0.0250259
-6.85512
-5.52852
-6.03571
-6.08841
-6.22408
-6.23607
-1.06976
-1.14009
-2.4497
-0.834542
0.0709153
-6.04281
-0.557169
-6.31528
-6.31321
-6.10609
-6.0706
-3.39337
-0.0474609
-1.92056
-1.26796
-4.03982
-0.875922
-6.57023
-6.52189
-6.6507
-6.15336
-6.36491
-6.65807
-1.31234
-6.54562
-0.223288
-6.69014
-1.11142
-6.41756
-3.3819
-5.75899
-5.2573
-2.65064
-6.2742
-5.45952
-0.959844
-2.63173
-5.40604
-0.676759
-1.35403
-3.48763
-1.34753
-1.21962
-3.28921
-3.05107
-2.73336
-6.59145
-0.627531
-2.02837
-3.04711
-5.55506
-8.18158
-3.64583
-2.38256
-5.50974
-2.7753
0.0574741
-8.23991
-5.1475
-6.52321
-8.27369
-7.78429
-1.04447
-8.06656
-2.80355
-2.96533
-0.0348533
-2.86901
-4.56546
-0.927164
-3.09515
-1.07515
-5.98948
-3.01115
-1.68022
-1.50417
-1.83142
-1.62321
-1.10184
-3.03962
-2.17362
-3.01609
-5.10875
-2.42273
-2.54508
-3.54951
-3.4064
0.0701184
-1.43206
-0.893674
-2.76213
-1.29318
-1.81192
0.0594307
0.0564588
-2.22193
-0.735692
-0.922
-1.38233
-0.021952
-3.65987
-1.37528
-2.89316
-0.608289
-0.740562
-0.0471584
-1.48726
-0.545664
-1.16046
-6.62696
-0.0752251
-0.097816
-0.982817
-4.28734
-3.26298
-0.00675812
-1.07268
-2.52323
-3.2796
-2.37164
0.0795641
-1.08653
-5.35781
-2.29612
-0.93965
-0.379135
-5.73056
-1.422
-0.10126
-1.11914
0.0649461
-0.848547
-0.111305
-1.05252
0.0607391
-3.98723
-0.913984
0.049919
-1.89812
-0.578234
-0.884977
-6.57763
-3.03639
-4.38547
-1.53148
-7.30574
0.0680323
-1.22681
-2.10255
-0.149524
-0.0123826
-1.21221
-0.783592
-0.755197
-1.12983
-0.113484
-0.568344
-3.39428
0.0643797
-2.22112
-1.08376
-1.91211
-0.740177
-2.2797
-0.497327
-6.45765
-6.53311
-4.90105
-6.49939
-0.16316
-0.881844
-3.74185
-0.800095
-5.5611
-1.99531
-0.0542279
0.014284
-0.263829
-1.08176
0.0681884
-0.966535
-5.55931
-0.73075
-0.788363
-1.93401
-0.871116
-3.74113
-4.07709
-1.31033
-2.83809
-2.06327
-5.4705
-0.946181
-0.924489
-2.74814
-0.751346
-1.50363
-1.30049
-1.8285
-2.12576
-0.750134
-0.176372
-0.87266
0.0112372
-0.971785
-2.03457
0.00652804
-4.4834
-3.6175
-1.55527
-0.0418992
-1.00524
-0.0322729
-5.44918
-1.48497
-6.07729
-3.6504
-0.916648
-0.111306
-0.00539763
-4.17893
-1.87328
-0.289497
-4.88184
-0.783582
-0.0720237
-2.57598
-1.30602
-5.98131
-2.39498
-0.0709453
-1.2607
-0.26692
-0.710728
-0.382899
-0.838357
-5.92344
-3.74562
-0.535084
-4.87005
-0.772427
-0.691203
-6.62572
-0.958238
-4.97885
-1.8379
-1.10173
0.0588186
-3.68198
-2.64721
-5.33114
-2.49919
-0.594181
-7.08104
-1.12406
-2.91784
-0.695674
-3.27645
-5.95666
-0.120129
0.0609189
-1.53207
-1.62608
-4.33354
-0.105905
-0.980536
-5.45625
-0.131959
-1.12627
-0.0540613
-2.55132
-2.04151
0.0315156
-3.38761
-1.82637
-0.309702
-1.20657
-2.86337
-0.0468412
0.0595891
-6.62014
-4.31209
-0.439248
0.0749774
-0.122113
-0.355802
-0.967125
-0.891104
-1.27355
-3.40613
-0.446112
-0.677649
-0.871924
-0.34951
-0.127995
-5.13673
-0.810089
-2.64664
-5.88019
-0.834168
-1.17385
-0.674306
-0.864525
-1.32136
-0.139376
-2.59047
-5.6427
-7.25535
-6.08737
-0.952613
-6.88014
-0.523405
-7.41875
-5.79551
-1.36316
-0.55746
0.00966741
-3.13926
-0.782516
-0.832184
-1.18182
-6.77854
-4.54879
-0.0906808
-7.18448
-1.27809
-0.329709
-0.783232
-0.955456
-4.89582
-5.22201
-0.590684
-0.290997
-5.30907
-0.715597
-7.57603
-0.844269
-2.18913
-5.87705
-6.37525
-1.14501
-3.81869
-2.22518
-3.13182
-3.63155
-5.2566
-2.01866
-2.33785
-2.63782
-0.385222
-0.289423
-0.315718
-1.42101
-7.43164
-2.7203
-0.394668
-0.294675
-5.15091
-1.22993
-1.36308
-6.46455
-0.134622
-2.07093
-1.66108
-4.06395
-2.56783
-1.05622
-0.64336
-1.04657
-1.53799
-7.19004
-1.49956
0.0179434
-8.04844
-5.57228
-1.29851
-1.87176
-7.85374
-7.12601
-0.0471473
-1.22104
0.0711916
-1.15702
-6.15835
-1.44122
-1.59735
-6.33573
-3.81755
-1.3984
0.0804752
-0.752258
-1.61193
-7.97387
-0.415951
-2.45653
-0.967697
0.00479741
-0.482473
-0.107851
-0.599084
-0.937059
-2.49562
0.0318412
-1.65313
-6.544
-1.33829
-5.19069
-1.35126
-1.82327
-0.0777058
0.0298235
-8.15226
-0.363511
-0.710861
-4.37105
-4.1639
-0.0380488
-1.17187
-1.00155
-1.14564
-0.0403482
-0.0237543
-2.35636
-1.00527
-5.81199
-1.1811
-6.03447
-4.48071
-1.58647
-4.50225
-1.73703
-1.72339
0.0763193
-1.95647
-1.23477
-2.95257
-1.33714
-1.5301
-1.35876
-1.39873
-5.52685
-7.93365