<VTKFile type="UnstructuredGrid" version="0.1" byte_order="LittleEndian">
  <UnstructuredGrid>
    <Piece NumberOfPoints="10582" NumberOfCells="20691">
      <Points>
        <DataArray type = "Float64" NumberOfComponents="3" format="ascii">
3.5 2.00105 0.0 
3.5 1.99895 0.0 
0 0 0.0 
12 0 0.0 
0 4 0.0 
12 4 0.0 
8.77332 0.418647 0.0 
2.82731 1.93146 0.0 
1.7808 1.97765 0.0 
4.76515 1.91897 0.0 
3.46822 2.00422 0.0 
3.4492 2.00609 0.0 
9.75011 0.429191 0.0 
1.98549 0.464295 0.0 
3.4284 2.00811 0.0 
4.2924 2.85568 0.0 
3.40943 2.00992 0.0 
5.05014 3.13869 0.0 
3.39055 2.01171 0.0 
10.5646 0.785159 0.0 
3.37064 2.01358 0.0 
6.42631 0.449499 0.0 
3.94143 1.77338 0.0 
7.53613 2.9869 0.0 
3.3441 2.01602 0.0 
3.26508 0.97897 0.0 
3.32932 2.01737 0.0 
3.31416 2.01873 0.0 
4.37488 2.8901 0.0 
3.30101 2.01991 0.0 
6.4956 2.24143 0.0 
5.5748 0.609417 0.0 
3.28104 2.02167 0.0 
11.443 2.87979 0.0 
3.26112 2.02341 0.0 
7.27082 2.03327 0.0 
7.00257 2.02554 0.0 
7.64406 3.7576 0.0 
3.23123 2.02597 0.0 
12 0.740975 0.0 
8.28155 1.27045 0.0 
3.21131 2.02765 0.0 
3.20135 2.02848 0.0 
3.18889 2.02951 0.0 
3.17635 2.03053 0.0 
0.759789 2.22952 0.0 
6.05381 3.00049 0.0 
3.16034 2.03183 0.0 
3.15052 2.03262 0.0 
0.628639 2.20506 0.0 
9.89598 1.3651 0.0 
3.13957 2.03349 0.0 
12 0.247044 0.0 
3.1296 2.03426 0.0 
5.99831 0.528091 0.0 
3.12171 2.03487 0.0 
5.38344 1.70511 0.0 
3.11166 2.03562 0.0 
6.56458 2.38457 0.0 
3.10169 2.03635 0.0 
8.08727 1.03907 0.0 
3.0922 2.03704 0.0 
9.87757 2.91797 0.0 
3.08224 2.03774 0.0 
5.54517 3.74268 0.0 
3.07177 2.03847 0.0 
3.05986 2.03927 0.0 
3.04983 2.03993 0.0 
3.23846 2.72682 0.0 
3.03985 2.04058 0.0 
4.30691 0 0.0 
3.02987 2.04121 0.0 
8.66013 2.72876 0.0 
3.0199 2.04182 0.0 
3.00992 2.04242 0.0 
4.18277 0.915638 0.0 
3.00193 2.04289 0.0 
3.37364 3.04109 0.0 
6.92709 2.09023 0.0 
2.98711 2.04373 0.0 
3.53086 1.50743 0.0 
2.97747 2.04427 0.0 
8.24797 3.03812 0.0 
2.96958 2.04469 0.0 
3.47062 0 0.0 
2.96201 2.04509 0.0 
6.21549 1.68379 0.0 
2.95043 2.04569 0.0 
9.9963 2.9126 0.0 
2.94005 2.0462 0.0 
2.93089 2.04665 0.0 
5.00888 3.21905 0.0 
2.71896 2.05657 0.0 
2.92007 2.04715 0.0 
9.25464 2.64568 0.0 
2.91208 2.04752 0.0 
4.90901 0.0899404 0.0 
10.8572 2.96282 0.0 
2.8996 2.04807 0.0 
2.8946 2.04828 0.0 
8.13323 0.520161 0.0 
2.88961 2.04847 0.0 
3.08846 1.86764 0.0 
2.88461 2.04866 0.0 
2.88003 2.04882 0.0 
12 0.49404 0.0 
6.64714 2.62571 0.0 
2.87462 2.04899 0.0 
3.57743 2.26866 0.0 
2.86962 2.04914 0.0 
6.52954 2.17864 0.0 
2.34372 2.69851 0.0 
2.85755 2.04945 0.0 
2.86213 2.04934 0.0 
6.2277 2.3589 0.0 
11.0785 1.20913 0.0 
2.85213 2.04957 0.0 
3.48232 3.06973 0.0 
2.84714 2.04967 0.0 
2.5905 2.05771 0.0 
2.84214 2.04975 0.0 
2.83714 2.04983 0.0 
4.07121 1.85031 0.0 
2.7008 2.0473 0.0 
2.83214 2.04989 0.0 
2.82714 2.04994 0.0 
4.9992 2.24225 0.0 
2.81965 2.04999 0.0 
2.82215 2.04997 0.0 
5.55983 1.18487 0.0 
3.27945 1.28524 0.0 
2.81215 2.05001 0.0 
2.80472 2.05001 0.0 
2.79507 2.04997 0.0 
2.79965 2.05 0.0 
3.18649 2.99358 0.0 
1.71044 1.35136 0.0 
2.78966 2.04993 0.0 
9.94454 1.26014 0.0 
2.78466 2.04988 0.0 
9.45522 2.67434 0.0 
2.77966 2.04982 0.0 
7.88728 1.90278 0.0 
2.77466 2.04975 0.0 
5.11254 3.21135 0.0 
2.77216 2.04971 0.0 
2.76716 2.04961 0.0 
2.76467 2.04956 0.0 
8.49528 2.50007 0.0 
2.75967 2.04946 0.0 
2.75467 2.04934 0.0 
2.75231 1.15535 0.0 
2.74967 2.0492 0.0 
3.75 4 0.0 
2.74468 2.04906 0.0 
9.51856 2.75585 0.0 
2.73968 2.04891 0.0 
2.73469 2.04874 0.0 
9.41426 2.76593 0.0 
2.73219 2.04865 0.0 
2.72719 2.04847 0.0 
2.72261 2.04829 0.0 
7.07481 1.96072 0.0 
5.00775 1.52929 0.0 
2.7172 2.04806 0.0 
8.83747 2.67733 0.0 
3.75899 1.38527 0.0 
2.71221 2.04785 0.0 
3.19209 0.932166 0.0 
2.70472 2.0475 0.0 
2.67763 2.04605 0.0 
2.69045 2.04677 0.0 
2.69475 2.047 0.0 
6.62286 2.79864 0.0 
8.44381 0.813498 0.0 
2.68477 2.04646 0.0 
1.85752 1.95358 0.0 
5.22368 1.80939 0.0 
2.67479 2.04588 0.0 
9.04251 2.70224 0.0 
2.66978 2.04558 0.0 
2.6648 2.04526 0.0 
9.48102 3.02398 0.0 
2.65981 2.04494 0.0 
8.79605 3.01706 0.0 
2.65482 2.04461 0.0 
2.38028 1.40227 0.0 
2.64741 2.04409 0.0 
8.98557 2.77888 0.0 
7.99404 0.835602 0.0 
2.63986 2.04355 0.0 
8.28014 0.713082 0.0 
2.63239 2.04298 0.0 
3.00315 0.817372 0.0 
2.62498 2.0424 0.0 
8.23459 1.16471 0.0 
2.62242 2.0422 0.0 
1.84479 1.02742 0.0 
2.61495 2.04158 0.0 
9.08968 2.78231 0.0 
2.60755 2.04095 0.0 
9.42671 3.11439 0.0 
6.67586 2.27382 0.0 
2.60001 2.04028 0.0 
4.50011 4 0.0 
2.58798 2.03916 0.0 
2.59254 2.03959 0.0 
9.3863 0.644126 0.0 
1.9132 3.11557 0.0 
8.97315 2.9414 0.0 
2.58259 2.03864 0.0 
9.42058 2.93769 0.0 
6.46231 3.19374 0.0 
2.57513 2.0379 0.0 
2.57264 2.03764 0.0 
2.57016 2.03735 0.0 
2.56768 2.03702 0.0 
2.56522 2.03662 0.0 
2.56276 2.03616 0.0 
2.56031 2.03565 0.0 
2.55788 2.03508 0.0 
2.55546 2.03446 0.0 
2.55305 2.03379 0.0 
2.55066 2.03307 0.0 
2.54828 2.0323 0.0 
2.54592 2.03148 0.0 
2.54357 2.03062 0.0 
2.54124 2.02971 0.0 
2.53893 2.02876 0.0 
2.53664 2.02777 0.0 
2.53436 2.02674 0.0 
2.5321 2.02567 0.0 
2.52986 2.02456 0.0 
2.52764 2.02342 0.0 
2.52544 2.02224 0.0 
2.52325 2.02103 0.0 
2.52108 2.01978 0.0 
2.51893 2.01851 0.0 
2.5168 2.0172 0.0 
2.51469 2.01587 0.0 
2.51259 2.01451 0.0 
2.51052 2.01312 0.0 
2.50845 2.0117 0.0 
2.50644 2.01022 0.0 
2.50456 2.00858 0.0 
2.50283 2.00678 0.0 
2.50139 2.00474 0.0 
2.50037 2.00246 0.0 
2.5 2 0.0 
2.50037 1.99754 0.0 
2.50139 1.99526 0.0 
2.50283 1.99322 0.0 
2.50456 1.99142 0.0 
2.50644 1.98978 0.0 
2.50845 1.9883 0.0 
2.51052 1.98688 0.0 
2.51259 1.98549 0.0 
2.51469 1.98413 0.0 
2.5168 1.9828 0.0 
2.51893 1.98149 0.0 
2.52108 1.98022 0.0 
2.52325 1.97897 0.0 
2.52544 1.97776 0.0 
2.52764 1.97658 0.0 
2.52986 1.97544 0.0 
2.5321 1.97433 0.0 
2.53436 1.97326 0.0 
2.53664 1.97223 0.0 
2.53893 1.97124 0.0 
2.54124 1.97029 0.0 
2.54357 1.96938 0.0 
2.54592 1.96852 0.0 
2.54828 1.9677 0.0 
2.55066 1.96693 0.0 
2.55305 1.96621 0.0 
2.55546 1.96554 0.0 
2.55788 1.96492 0.0 
2.56031 1.96435 0.0 
2.56276 1.96384 0.0 
2.56522 1.96338 0.0 
2.56768 1.96298 0.0 
2.57016 1.96265 0.0 
2.57264 1.96236 0.0 
2.57513 1.9621 0.0 
2.58259 1.96136 0.0 
1.84476 0.842682 0.0 
2.58998 1.96065 0.0 
3.68248 0 0.0 
2.59503 1.96018 0.0 
2.60001 1.95972 0.0 
5.25292 2.73355 0.0 
2.60499 1.95928 0.0 
2.60997 1.95884 0.0 
7.9704 1.8341 0.0 
2.61495 1.95842 0.0 
2.61993 1.95801 0.0 
6.67775 2.38383 0.0 
2.62491 1.9576 0.0 
2.62989 1.95721 0.0 
6.05757 2.47597 0.0 
2.63488 1.95683 0.0 
2.63986 1.95645 0.0 
2.64485 1.95609 0.0 
4.49088 0.755642 0.0 
2.64983 1.95574 0.0 
2.6623 1.9549 0.0 
2.65482 1.95539 0.0 
2.65981 1.95506 0.0 
8.17613 1.24546 0.0 
4.25002 4 0.0 
2.66729 1.95458 0.0 
11.2956 1.25205 0.0 
8.33045 1.37709 0.0 
2.67228 1.95427 0.0 
2.67727 1.95397 0.0 
8.77818 2.48508 0.0 
2.68475 1.95354 0.0 
3.7026 2.08677 0.0 
2.69217 1.95314 0.0 
11.1454 3.21 0.0 
2.69723 1.95288 0.0 
2.69973 1.95275 0.0 
3.08018 0.950154 0.0 
2.70715 1.95239 0.0 
9.70163 2.56313 0.0 
4.49874 2.33138 0.0 
2.71221 1.95215 0.0 
2.7172 1.95194 0.0 
6.49351 3.12279 0.0 
2.7222 1.95173 0.0 
6.42887 2.27367 0.0 
2.72719 1.95153 0.0 
4.47693 1.13364 0.0 
10.5184 4 0.0 
2.73219 1.95135 0.0 
2.73718 1.95118 0.0 
9.803 0 0.0 
12 2.76485 0.0 
2.74218 1.95102 0.0 
3.62872 1.98176 0.0 
2.74967 1.9508 0.0 
2.76007 1.95054 0.0 
2.7571 1.9506 0.0 
6.26644 2.54366 0.0 
1.27321 0 0.0 
2.76467 1.95043 0.0 
2.76966 1.95034 0.0 
6.6018 2.00745 0.0 
2.77216 1.95029 0.0 
2.77716 1.95021 0.0 
2.77966 1.95018 0.0 
2.78466 1.95012 0.0 
2.79209 1.95005 0.0 
2.51663 2.44619 0.0 
2.79715 1.95001 0.0 
5.11022 1.87216 0.0 
2.61244 1.43557 0.0 
2.80215 1.94999 0.0 
2.80715 1.94998 0.0 
1.48397 1.47859 0.0 
2.81215 1.94999 0.0 
2.81715 1.95 0.0 
5.32292 2.82708 0.0 
6.537 2.04355 0.0 
6.68926 3.20215 0.0 
2.82215 1.95003 0.0 
2.82714 1.95006 0.0 
2.82964 1.95009 0.0 
2.85084 1.92175 0.0 
2.83707 1.95017 0.0 
2.84464 1.95029 0.0 
2.84964 1.95038 0.0 
2.40954 2.53052 0.0 
2.85463 1.95048 0.0 
4.54367 2.04622 0.0 
1.77605 2.80255 0.0 
2.86213 1.95066 0.0 
2.86713 1.95079 0.0 
2.48256 3.1634 0.0 
2.87212 1.95093 0.0 
2.87712 1.95109 0.0 
4 4 0.0 
2.88211 1.95125 0.0 
4.05899 1.64898 0.0 
2.88711 1.95143 0.0 
2.29923 2.40754 0.0 
2.8921 1.95162 0.0 
12 1.23459 0.0 
2.8971 1.95183 0.0 
11.6154 4 0.0 
2.90417 1.95213 0.0 
2.91208 1.95248 0.0 
3.57192 3.04638 0.0 
2.92207 1.95294 0.0 
5.50161 4 0.0 
2.93157 1.95339 0.0 
1.73985 0 0.0 
2.94154 1.95387 0.0 
2.95152 1.95437 0.0 
6.0983 0.213921 0.0 
2.96201 1.95491 0.0 
7.52066 1.95222 0.0 
2.9715 1.95541 0.0 
7.39006 3.51245 0.0 
2.98147 1.95595 0.0 
0.966707 1.21788 0.0 
2.99145 1.95651 0.0 
1.43684 2.05156 0.0 
3.00193 1.95711 0.0 
7.71051 3.87954 0.0 
3.01143 1.95767 0.0 
5.90879 0.822471 0.0 
3.02139 1.95827 0.0 
6.6039 2.71065 0.0 
3.03137 1.95889 0.0 
3.68685 2.43383 0.0 
3.04135 1.95952 0.0 
7.43078 0.937681 0.0 
3.05132 1.96016 0.0 
7.90367 4 0.0 
3.0618 1.96086 0.0 
6.67764 1.24793 0.0 
3.07177 1.96153 0.0 
0.769062 1.4551 0.0 
3.08126 1.96219 0.0 
9.54803 1.28276 0.0 
3.09172 1.96293 0.0 
3.09837 1.96341 0.0 
10.1159 4 0.0 
2.02395 3.15068 0.0 
3.11166 1.96438 0.0 
10.1222 1.75858 0.0 
3.12114 1.96509 0.0 
3.1311 1.96585 0.0 
6.86748 2.2434 0.0 
3.14156 1.96667 0.0 
3.67092 3.19328 0.0 
3.15104 1.96742 0.0 
4.6518 1.42505 0.0 
3.0328 0.591227 0.0 
3.17146 1.96907 0.0 
6.44021 2.18497 0.0 
3.18336 1.97004 0.0 
2.77923 1.93806 0.0 
3.20135 1.97152 0.0 
3.22072 1.97314 0.0 
4.90433 1.06843 0.0 
2.37906 2.59073 0.0 
3.23123 1.97403 0.0 
2.49238 1.20869 0.0 
3.24555 1.97525 0.0 
8.58402 0.30847 0.0 
3.26112 1.97659 0.0 
5.77845 1.60796 0.0 
7.96358 3.88296 0.0 
3.28104 1.97833 0.0 
9.01753 0 0.0 
1.96766 1.68156 0.0 
3.30038 1.98003 0.0 
8.26583 1.45566 0.0 
8.7656 2.38481 0.0 
3.31787 1.9816 0.0 
6.74838 3.05324 0.0 
3.33233 1.9829 0.0 
8.37767 1.48423 0.0 
8.68938 1.7583 0.0 
3.35073 1.98458 0.0 
1.50522 0 0.0 
3.37064 1.98642 0.0 
1.04781 0 0.0 
1.85135 1.10186 0.0 
3.39055 1.98829 0.0 
8.22608 1.63221 0.0 
10.3114 4 0.0 
3.41483 1.99059 0.0 
6.59792 1.73349 0.0 
3.42937 1.99199 0.0 
[...]
<PointData>
  <DataArray type = "Float64" Name="BLMLevelSetLayer1" format="ascii">
0.135015
0.135015
-3.06467
-8.59687
-3.06467
-8.59687
-5.37001
0.116403
-0.585785
-1.13266
0.135015
0.135017
-6.30921
-1.47021
0.135015
-1.03044
0.135016
-1.78778
0.135015
-7.03308
0.135015
-3.17619
-0.360708
-4.01977
0.135015
-0.859418
0.135015
0.135016
-1.11231
0.135017
-2.87021
-2.36211
0.135015
-7.85644
0.135015
-3.63594
-3.36764
-4.36595
0.135015
-8.45757
-4.70171
0.135015
0.135015
0.135015
0.135016
-1.62103
-2.6074
0.135016
0.135016
-1.74842
-6.29229
0.135015
-8.54365
0.135015
-2.76412
0.135016
-1.7712
0.135015
-2.95347
0.135015
-4.55161
0.135015
-6.30813
0.135015
-2.55125
0.135015
0.135015
0.135015
-0.564016
0.135015
-2.02065
0.135015
-5.07618
0.135015
0.135015
-1.14551
0.135015
-0.888595
-3.29323
0.135014
-0.357138
0.135014
-4.72489
0.135014
-1.85232
0.135015
-2.59871
0.135015
-6.42493
0.135015
0.135017
-1.80412
0.126583
0.135015
-5.65561
0.135015
-2.23767
-7.28478
0.135011
0.135012
-4.72848
0.135012
0.0401909
0.135012
0.135013
-8.49718
-3.07351
0.135011
-0.143572
0.135012
-2.89973
-0.561886
0.135011
0.135015
-2.61606
-7.48452
0.135016
-0.926946
0.13501
0.116784
0.135016
0.13501
-0.455222
0.135016
0.135015
0.13501
-1.38347
0.135011
0.135015
-2.07985
-0.555391
0.135016
0.135012
0.135012
0.135011
-0.825856
-0.884887
0.135012
-6.35174
0.135012
-5.85815
0.135012
-4.25332
0.135012
-1.8812
0.135015
0.13501
0.135012
-4.88513
0.135011
0.135012
-0.660166
0.135012
-1.87951
0.135012
-5.93069
0.135011
0.135012
-5.8285
0.135015
0.13501
0.135016
-3.44
-1.44419
0.13501
-5.24513
-0.531077
0.135015
-0.900323
0.135012
0.135013
0.135014
0.135012
-3.08809
-4.94894
0.135012
-0.510195
-1.59905
0.135012
-5.45167
0.135012
0.135012
-5.93285
0.135012
-5.25762
0.135012
-0.454801
0.135011
-5.40543
-4.50715
0.135012
-4.81506
0.135015
-1.00314
0.135012
-4.67251
0.135015
-1.03277
0.135012
-5.50899
0.135011
-5.89536
-3.05254
0.135011
-2.10016
0.135012
0.135015
-5.90519
-1.11806
-5.41833
0.135015
-5.85919
-3.05839
0.135005
0.135015
0.134933
0.134899
0.134928
0.135015
0.134933
0.134907
0.134934
0.135015
0.13494
0.134916
0.134941
0.135015
0.134947
0.134925
0.134948
0.135015
0.134954
0.134935
0.134956
0.135015
0.13496
0.134943
0.134962
0.135015
0.134966
0.134946
0.134969
0.135015
0.134661
0.134503
0.134581
0.135015
0.134003
0.133629
0.134003
0.135015
0.134581
0.134503
0.134661
0.135015
0.134969
0.134946
0.134966
0.135015
0.134962
0.134943
0.13496
0.135015
0.134956
0.134935
0.134954
0.135015
0.134948
0.134925
0.134947
0.135015
0.134941
0.134916
0.13494
0.135015
0.134934
0.134907
0.134933
0.135015
0.134928
0.134899
0.134933
0.135015
0.135005
0.135015
-1.18843
0.135012
-1.87217
0.135011
0.135012
-1.7648
0.135011
0.135012
-4.33843
0.135011
0.135012
-3.06571
0.135012
0.135012
-2.46627
0.135012
0.135012
0.135012
-1.45485
0.135012
0.135016
0.135012
0.135012
-4.60143
-2.00001
0.135011
-7.69629
-4.7353
0.135015
0.135011
-5.16531
0.135012
-0.0849767
0.135016
-7.60536
0.135011
0.135012
-0.874813
0.135011
-6.09203
-0.91693
0.135015
0.13501
-3.06176
0.135016
-2.80652
0.13501
-1.17003
-7.16252
0.135015
0.13501
-6.47737
-8.39923
0.135015
0.00515289
0.135012
0.135013
0.13501
-2.68414
-2.2055
0.135011
0.135012
-2.96679
0.135015
0.13501
0.135012
0.135011
0.135016
-0.277349
0.13501
-1.48019
-0.386497
0.135015
0.13501
-1.00607
0.135016
0.135011
-1.86633
-2.90228
-3.27292
0.135015
0.13501
0.135012
0.106364
0.13501
0.135011
0.135012
-0.382027
0.135012
-0.909632
-0.942878
0.135015
0.13501
-0.994162
0.135016
0.13501
-1.92552
0.135016
-0.524493
0.13501
-0.311779
0.135016
-8.39928
0.13501
-8.22295
0.135015
0.135015
-0.912288
0.135015
-2.69381
0.135015
-1.99205
0.135015
0.135015
-3.01737
0.135015
-3.88592
0.135015
-4.03834
0.135015
-1.58532
0.135016
-0.930556
0.135015
-4.47553
0.135015
-2.54573
0.135016
-3.04896
0.135015
-0.336379
0.135016
-3.93651
0.135016
-4.70111
0.135015
-3.13017
0.135015
-1.67957
0.135015
-5.95527
0.135015
0.135014
-6.77625
-1.09939
0.135015
-6.49156
0.135015
0.135015
-3.24118
0.135015
-1.0694
0.135015
-1.15184
-1.2305
0.135015
-2.81094
0.135015
0.122886
0.135015
0.135016
-1.54963
-0.448468
0.135015
-0.622916
0.135015
-5.22268
0.135015
-2.17674
-4.70906
0.135015
-5.73346
-0.484069
0.135015
-4.66168
-5.14455
0.135015
-3.27952
0.135015
-4.76974
-5.05995
0.135015
-2.09038
0.135015
-2.33213
-0.968415
0.135015
-4.60528
-6.96363
0.135015
-2.97425
0.135015
-1.8249
0.135015
-0.195269
-3.19578
0.135016
-0.306396
-1.89916
-0.924589
-2.87327
-2.69104
0.113025
-0.833295
-0.496386
-2.69221
-1.91323
-0.477294
-3.94023
-0.570204
-3.25518
-1.01683
-2.32684
-2.10567
-2.21368
-3.18236
-4.73886
-1.75711
-4.49541
-1.69208
-0.974665
-0.43781
-7.36422
-7.77433
-3.93624
-0.295285
-6.3515
-1.08861
-1.28458
-6.9705
-3.29383
-0.0398079
-0.861006
-0.690722
-6.7278
-0.930106
-8.08557
-4.87426
-8.40047
-0.642404
-6.02322
-0.306617
-1.81612
-3.80735
-8.36503
-8.36699
-8.3537
-1.93275
-6.54457
-2.41493
-3.15669
-1.15373
-8.42997
0.0636607
-2.84714
-7.56758
-2.22905
-0.233245
0.112593
-8.45625
-8.49614
-8.54305
-7.86863
-0.573065
-2.78394
0.0981988
-0.64618
-2.46278
-1.71678
-1.13746
-1.05492
-1.45473
-2.52583
-0.890582
-0.736435
-0.00525822
-1.10732
-2.86429
-3.97452
-2.0048
-2.1291
-2.91714
-0.353991
-2.10134
-1.81716
-0.432565
-1.8446
-5.63682
-2.79502
-0.645852
-4.64344
-1.77489
0.0871994
-2.22107
-1.81569
-0.756623
-1.83422
0.0476288
-0.663896
-2.91504
-2.41386
-2.69104
-0.343947
-2.32393
-2.36074
-2.51932
-1.86344
-1.20716
-2.87327
-0.512149
-0.820491
-5.98104
-2.26677
-5.12868
-2.91504
-2.37837
-2.36637
-2.37837
-6.36445
-2.47503
-2.5571
-2.65919
-2.77921
0.0740546
-5.55186
-6.62941
-1.87359
-0.864691
-0.653221
-7.40046
-0.404626
-0.753418
-0.950365
0.0340082
-2.64989
-0.691682
-4.83534
-0.647904
-5.24641
0.06335
-1.0419
-5.40344
-2.8509
-6.27457
0.0926836
-1.19791
-7.54235
-3.7327
-2.68299
-0.313186
-1.79758
-2.44396
-6.94114
-5.20594
-0.475289
-4.71875
-2.36459
-1.04139
-4.67154
-1.00891
-0.76726
-2.41135
-2.64425
-3.23979
-7.76958
-6.04058
-1.60788
-3.684
-4.94402
-0.0759007
-0.27761
-1.77487
-0.176793
-5.07698
-1.94541
-3.24416
-0.410936
-5.66361
-5.42426
-0.158305
-3.73855
-3.85287
-2.8371
-5.13024
-3.0091
-2.09957
-0.335211
0.071614
-1.0274
-5.17525
-5.30187
-1.43208
-5.19763
-1.05938
-4.19256
-1.66938
-3.46698
0.0661251
-3.01316
-5.01488
-3.21974
-1.67436
-0.91546
-0.636122
-4.56056
0.0861502
-3.21706
-2.99888
-4.8328
-2.98226
-3.10143
-0.257036
0.0248272
-3.81732
-2.37894
-5.13801
-4.92047
-3.53629
0.00648237
-2.55495
-4.63144
-4.93685
-1.05901
0.0938546
-1.44161
-3.03462
-0.575658
0.132885
-0.922395
-2.31374
-6.76006
-2.85819
0.120696
-1.04799
0.0831275
-0.863555
-0.746092
-4.9093
0.0506179
-0.523151
-1.7669
-2.78361
-4.47097
-5.63137
-2.72782
0.120778
-1.68718
-3.42314
-4.94581
-6.4004
-2.75952
-1.51291
-0.483214
-1.52237
-1.5427
-4.98523
-2.41413
-0.766512
0.0627182
-7.76588
0.117199
-4.49242
-2.6798
-4.83156
-2.80812
-0.389327
0.10693
-3.09762
-0.527572
-4.60421
-4.53557
-2.92027
-1.59523
-4.80359
-2.84905
-2.3186
-4.87946
-5.02449
-7.22873
-0.207076
-3.46485
-0.202546
-2.64878
-0.634839
-2.81216
-1.15011
-0.263028
-0.4809
-0.730972
-2.50931
-2.99684
-0.195494
-0.947217
0.0581112
-8.33381
-1.19305
-1.12277
-0.175003
-3.27368
0.0598231
-2.14208
-2.73263
-6.58687
0.00660748
-1.3548
-0.998271
-1.94542
-0.925024
-2.02126
-2.8175
-0.748164
-0.437374
-0.081723
-1.39475
-3.2037
-1.36505
-0.66559
-0.342424
-1.76865
-0.368003
0.0978613
-1.22302
-2.87729
-4.46462
-0.99694
-0.53748
-3.68679
-1.29757
-0.731343
-0.0524416
-3.10723
-0.97701
0.00125212
0.0908695
-2.86366
0.0604916
-5.59758
-8.13237
-1.41496
-4.47184
-7.62144
-1.35809
-1.55622
-5.85671
-5.39253
0.04388
-0.26923
-0.284302
-0.679365
-7.55318
-0.699404
-8.00871
-3.51128
-7.83778
-0.947054
-2.07719
-0.694326
-8.0439
-1.55075
-1.17996
-7.79212
-4.3398
-8.1223
-2.42157
-3.36803
-1.40973
-3.17444
-1.24399
-8.00726
-1.94389
-1.21131
-2.23431
-3.92718
-6.36402
-0.180771
-0.231151
-0.213122
-1.44409
0.120216
-5.01508
-3.04716
-0.29846
-6.93534
-3.44412
-8.27403
-5.04161
-8.29073
-1.47557
-2.40328
-0.171438
-0.119243
-0.783594
-4.33667
-0.810946
-2.49258
-3.25261
0.102727
-2.43993
-0.988977
-0.618636
-5.864
-0.526298
-1.8958
-0.499503
-0.782545
-1.08299
-1.25722
-1.6197
-3.54722
-0.535712
-4.8795
-0.71985
-1.59842
-3.10075
-2.72127
-2.21903
-1.33867
-1.67706
-0.409155
0.0730785
-0.886814
-0.596455
-0.689175
-0.706865
-0.413641
-1.3886
-2.01289
-5.09612
-1.15209
-0.254975
-2.04894
-0.251821
-0.349152
-1.74306
0.00884987
-6.60736
-6.08807
-0.265575
-1.69206
-2.73236
-0.395634
0.105963
-2.21887
-0.942817
-0.244751
-4.36036
-5.22162
-0.145773
-1.62668
0.0755513
-4.95225
-3.16788
-5.11054
-3.76491
-3.00236
-1.41894
-0.914218
-0.875857
-1.55959
0.00902871
-1.38135
-1.99531
-0.54593
-4.9891
-0.372779
-5.09418
0.0373237
-1.21956
-4.90457
-1.8738
-6.28623
-2.94047
-1.44322
-3.20497
0.125809
0.117751
-6.55405
-2.03976
-2.63767
-0.732725
-2.59878
0.0934251
-0.160022
-0.434272
-1.16195
-2.32401
-2.03349
-1.29988
-2.23204
0.0713924
-2.29058
0.121153
-1.01449
-2.30191
-3.28545
-1.49264
-3.07729
-1.35271
-2.49649
-3.14977
-0.355095
-3.27858
-2.38636
-0.018152
-1.83699
-0.3501
-4.82722
-1.85879
-0.873976
-1.03246
-0.481155
-1.82304
-1.34531
-2.02874
-4.62518
-4.40507
-5.39554
-3.9644
-2.79417
-3.22207
-2.85386
-0.492683
-1.90356
-1.99639
-5.79197
-2.95162
-1.33555
0.101895
-2.8232
-2.11981
-1.03543
0.096093
-0.363004
-0.383352
-0.575772
-0.752738
-0.693238
-0.596288
-0.715106
-2.69748
-0.425857
-5.518
-2.04684
-6.64512
-2.67603
-0.91487
-0.757405
-1.35616
-0.104177
0.049063
-3.84249
-4.5104
-2.42763
-2.18974
-2.10938
-0.989081
-0.540506
-0.8616
-1.00742
-0.321949
-2.14532
-0.329034
-0.34802
-0.823636
-0.124341
-2.45674
-4.98203
-1.48294
-1.46752
-0.399501
-2.344
-1.1787
-2.06102
-2.44169
-0.376895
-1.51235
-1.7421
-3.35188
-2.3659
-3.24099
-5.68215
-0.452049
0.0499297
-4.79309
-0.769589
-0.694951
-0.00594418
-5.84259
-1.33057
-1.14595
-4.27505
-3.51341
-2.04829
-0.868726
0.015345
-4.38489
0.0263897
-0.562675
-2.75321
-0.770553
-1.06098
-0.777333
-0.672418
-0.289685
-0.757283
-1.35728
-0.399203
-6.60502
-5.75759
-0.905116
-2.347
-0.0210904
0.131489
-0.113932
-6.15378
-0.140315
-0.268432
-7.05711
-4.07426
-0.792683
-1.98887
-4.92471
-2.10365
-0.795697
0.096523
-0.275466
-0.586341
-4.64493
-6.6024
-2.22962
-1.35612
-5.40157
-3.05233
-1.73456
0.126011
-1.18649
-0.849659
-2.96181
-1.23016
-0.497677
-1.54119
-0.801891
-1.25591
-2.35071
-1.25399
-6.02091
-1.4308
-0.607962
-0.439028
-0.667446
-2.65244
-3.21143
-2.12031
-1.41242
-0.401715
-2.03751
-6.82125
-0.56658
0.0998947
-0.585962
-0.379499
-7.20554
0.119186
-3.52094
-5.24791
-0.26621
-5.29063
-1.81732
-3.9237
-0.561216
-6.69559
-1.00451
-3.42038
0.10534
-0.73159
-0.629895
-0.460007
-0.975881
-0.741733
-4.96962
-0.957398
-0.565322
-4.25764
-0.850653
-4.30619
-0.561795
-0.96022
-0.820255
-1.58564
-0.331688
0.128611
-0.868775
-1.34692
-0.944675
-2.86892
-0.765838
-1.82898
-4.94677
-0.813365
-0.846817
-4.06011
-1.15656
0.0605106
-3.92618
-0.598386
-7.714
-0.440104
-0.608232
-6.929
-3.51687
-2.27307
-3.10264
-0.614426
-0.744007
0.0478078
-0.517992
-1.1464
-2.51379
-0.685555
-1.74844
-7.56973
0.124839
0.091452
-0.906032
-0.836871
-0.772079
0.125576
-2.12725
-2.94566
-3.64357
-0.519255
-3.95835
-1.56635
-1.02694
-1.23604
-5.13647
0.130728
-3.39852
0.104462
-0.529219
-1.12393
-0.50206
-3.86302
-4.53282
-5.98027
-4.38764
-4.02991
-6.57199
-2.13646
-5.39832
-2.15181
-0.711571
-0.669689
-0.899678
-6.58092
-5.20245
-3.69726
-7.56893
-4.94598
-5.58869
-1.15072
0.0741452
-0.609216
-7.3608
0.0871856
-4.66456
-1.99041
-3.71413
-1.66265
-0.604017
-2.13549
-7.82113
-7.43924
-1.52113
-7.43981
-0.573089
-1.89161
-0.726224
-0.790557
-2.5301
-0.432697
-0.770702
-7.66066
-8.05383
-0.56746
0.0584914
0.103656
-3.05587
-0.716418
-5.95529
-8.26928
-7.76384
-0.438975
-0.38356
-4.84257
0.0465724
-3.85495
-0.588211
-0.616058
-7.96138
-7.59077
-0.259387
-3.3511
-0.36194
-1.59794
-0.892003
-1.23193
-2.3567
-5.12208
-7.87419
-0.237846
-6.30319
-0.38654
-3.12446
-1.1754
-2.27406
-7.28602
-4.11307
-0.0131951
-3.82341
-3.14716
-3.03255
-4.68479
-8.14583
-5.48638
-0.872153
-7.90292
-4.49448
-7.95651
0.110515
-1.93832
-4.87753
0.105522
-1.21838
-4.13668
-0.745015
-6.1939
-4.02483
-4.92283
-5.68138
-4.05141
-0.785378
-1.86925
-0.0628995
-5.18496
0.100934
-1.27989
-2.23325
-7.2291
-5.82885
-6.46255
-0.538795
-0.775034
-2.17345
-7.17784
-0.320515
-1.93972
0.122906
-5.35255
-2.9986
-3.02065
-2.02165
-8.17543
-0.573245
-0.725448
-0.325879
-8.11049
-0.727717
-0.321825
-3.21261
-1.54275
0.129026
-7.08022
-0.872551
-0.625187
-0.256534
-7.98272
-0.0158931
-1.60924
-0.64626
-2.19285
-0.786437
-0.992846
-0.331937
-3.04624
-2.04706
-1.35519
-6.63476
-5.47282
-0.329689
-4.64474
-2.68
-5.15128
-3.42663
-2.0382
-4.52382
-1.68353
-3.05737
-0.672422
-0.500008
-2.29152
-5.32237
-2.91443
-0.69729
-2.2449
-1.53721
-0.404601
-3.32154
-2.50134
0.120614
-2.64368
-1.06283
-0.340138
0.090954
-3.66229
-0.687926
-2.68971
-0.503161
-0.738868
-4.04938
-5.82358
-2.27271
-6.43913
-3.83908
-0.870401
0.129757
-3.83076
0.124498
-0.860908
-0.619386
-5.90836
-2.60401
-2.88076
-0.865917
-4.72604
-1.9287
0.0340929
0.0486362
-0.521282
-3.57798
-4.21002
-4.67529
-5.20691
-3.57736
-2.1299
-3.61515
-0.457983
-1.54702
-4.08177
-4.10238
-0.981014
-0.598486
-0.401661
-8.0079
-0.243426
-4.50613
-2.61901
-0.511714
-0.426038
-2.52017
-4.02479
-6.89532
-2.88832
-0.0369312
-0.833097
-4.3545
-0.654842
-2.93415
-6.30102
0.080874
-0.735359
0.116472
-1.69008
-4.35951
-6.78448
-2.26051
-1.72165
-6.45455
-1.87022
-4.38461
-3.75062
-5.54019
-1.53532
-2.79228
-3.93188
-0.69332
-8.15346
-8.09184
-8.17747
-7.68826
-6.33537
-2.07235
-4.36169
-6.12406
-6.88078
-0.879701
-1.17446
-2.51078
0.129407
-0.966269
-1.03283
-1.71778
-0.606416
-6.50848
-0.148235
0.129814
-0.396423
-2.5343
0.11483
-0.553742
0.131915
-4.1672
-1.48521
-2.43454
-3.00792
-2.44123
-3.87676
-0.235933
-4.74701
-1.10016
-5.87709
-1.91831
-2.6108
-1.29744
-1.1109
-3.40691
-4.33237
-1.30075
-4.40427
-2.19958
-1.01454
-0.536652
-0.757073
-4.99883
-4.29761
-6.89424
0.13324
-5.05326
-4.23275
-1.12624
-4.91532
-3.17081
-0.940124
-0.574669
0.0533914
0.0812066
0.052644
-2.16981
0.132891
-3.49338
-3.52684
-6.09744
-2.83962
-2.33752
-1.0166
-3.7764
-4.47737
-0.650814
-1.48845
-6.17894
-5.08471
-1.56532
-5.46135
-0.353632
0.133349
-4.46438
-0.447082
-2.90101
-1.10126
0.0980416
0.119964
-0.41438
-5.06489
-4.77518
-6.21632
-6.80453
-1.25069
-0.655293
-0.556105
-6.70474
0.124159
-2.79724
-0.53829
-0.753142
-2.77829
-0.33059
-4.61828
-6.99806
-0.309393
-0.432252
0.127059
-5.68146
-5.43444
-4.16005
-0.0385345
-4.55717
-2.76284
-6.15929
-0.76979
-0.716457
-0.63017
-3.53774
0.133292
-0.0650925
-2.60861
-0.709084
-0.928611
-2.53338
-0.0740755
-0.0185516
-2.20499
-2.94751
-1.29155
-6.30259
-5.66826
-2.82524
-1.23948
-0.493598
-3.97844
-1.30163
-4.75413
-7.36908
-5.77558
-0.880594
-5.8575
-0.165977
-5.78172
-1.26353
0.135018
-3.95172
-5.70401
-1.17528
-0.981396
-1.25197
-4.66202
-0.525542
0.130763
-7.62899
-1.15544
-0.634093
-0.481474
-0.544383
0.122814
-2.6844
-3.27141
-7.37608
-0.671513
-1.11081
-4.45394
-2.53324
-1.74332
0.133121
-1.74408
-1.66549
-2.37671
-1.16881
-2.72063
0.123071
-6.9859
-3.56307
-0.760555
-5.2392
-0.391801
-7.57674
-0.673917
0.128201
-7.04743
-1.22134
-1.01604
-5.88766
-0.970286
-1.34382
-1.03728
-5.81983
-0.479232
-5.30586
-1.0292
-1.17926
-6.07036
-1.13199
-1.07006
-5.37859
-4.06669
-2.35102
-0.693061
-4.1456
-5.16625
-5.78244
-1.06526
-1.274
-0.682878
-5.93566
-0.836005
-2.53526
-6.66474
-6.15847
-6.80112
-5.47452
-5.98171
-6.0344
-6.17007
-6.18207
-1.01576
-1.08608
-2.3957
-2.52249
-0.927885
-5.9888
-0.668524
-6.26127
-6.2592
-6.05209
-6.01659
0.133493
-3.3274
-0.780576
-5.48801
-0.909828
-0.561528
-6.51623
-6.46789
-6.59669
-6.09935
-6.3109
-6.60406
0.13427
-6.49161
-1.1274
-6.63613
0.129012
-6.36356
-3.32789
-5.70498
-5.20329
-2.59663
-1.03812
-5.40551
-0.607563
-3.98719
-5.35204
-2.58647
0.0813914
-3.43363
-2.79965
-5.01528
-3.2352
-0.433981
-6.43171
-6.53744
-0.0314935
-0.92863
-2.9931
-5.50105
-8.12757
-3.59182
-2.32855
-5.45574
-3.4217
-2.67301
-8.1859
-0.0330148
-6.46921
-8.21968
-7.73029
-1.22901
-8.01256
-2.74954
-4.75597
-0.43723
-0.577602
-4.51145
-2.59883
-3.04114
-1.02114
-1.16177
-0.564861
-1.62622
-0.913162
-1.77742
-0.171848
-2.80486
-1.40335
-1.26181
-1.01485
-2.90989
-2.36873
-2.49107
-2.94174
-1.10236
-1.97324
-3.35126
-3.49489
-1.00994
-1.51939
0.0234441
-0.447888
-2.99085
-0.418511
-0.971089
-2.12665
-1.29184
-1.962
-3.60587
-5.93548
-2.83916
-1.11698
-0.686556
0.133838
-0.613896
-0.36024
-0.497428
-6.57296
-1.23808
-0.563722
-1.01917
-0.576895
-6.15224
-1.65337
-1.10467
-3.20911
-3.22559
0.123855
-1.37765
-1.04808
-5.3038
-1.03846
-0.199764
-1.33044
-5.67655
-6.10414
-0.986485
0.0137016
-0.621797
-4.23337
-0.93136
-0.843999
0.114745
-3.93323
-2.70928
-3.91095
-0.0577763
-1.00228
-0.830971
-6.52362
-2.98238
-4.33147
-1.41236
-7.25173
-0.874514
-2.23558
-2.04854
-2.31097
-2.48722
-1.56936
0.0355344
-5.09277
-0.683262
-1.07552
-5.78669
-2.17858
0.00861553
-2.16712
-3.34516
-1.8581
-4.91622
-1.45629
0.111381
-6.40364
-6.4791
-4.84704
0.11904
-5.7526
-0.827838
-5.61055
-1.35361
-5.5071
0.119693
-0.682563
-1.94812
-6.53888
-0.490215
-3.68537
-0.724676
-5.5053
-1.32415
-2.60663
-0.920333
-0.860831
-0.206391
-6.08088
-0.811493
-2.78408
-0.521189
-5.4165
-0.709291
0.111087
0.0896257
-1.25719
-1.0513
-0.895972
0.0010078
-5.60685
0.115319
-1.88932
-4.96067
-0.866267
-2.08076
0.117557
-0.013619
-4.4294
-1.97236
-0.679363
-0.0944739
-1.64865
-0.671646
-5.39517
-5.18357
-1.93744
-1.97556
-1.77142
-0.524001
-0.31992
-4.12492
-1.81927
0.061105
0.107728
-3.25462
-2.22538
-0.968834
-0.749085
-0.88967
-1.01573
-0.924545
-1.20669
-5.8087
-2.32183
-2.5202
-0.731315
-5.86943
-1.42504
-0.481078
-4.81605
-0.870127
-1.0493
-5.50274
-2.68518
-0.689523
-1.7839
-0.054475
-0.816875
0.121069
-3.6314
-5.27713
-0.043036
-2.14305
-7.02703
-1.07006
-0.632619
-1.25381
-1.8936
-0.786089
-1.49264
-0.815343
-1.47587
0.0156486
-5.78208
-4.78843
0.065029
-0.929199
-0.065713
-0.213767
0.0505749
-5.9273
-4.93268
-1.18333
0.0238881
-0.642157
-2.59458
-1.15256
-5.30189
-2.81012
-1.07402
-6.56614
-2.26059
-0.0179092
-1.99525
0.0695287
-0.383934
-0.04759
-1.03561
-1.21954
-3.58627
0.113224
-0.623643
0.127147
-3.33005
0.0547476
-4.02487
-0.0836971
0.115384
-0.662938
-5.98806
-0.780923
-0.0522161
-0.995477
-4.02373
-1.2978
0.123125
-0.0832943
-7.20134
-0.788029
0.125354
-6.82614
-1.23902
-7.36475
-5.7415
0.0866606
-0.00441752
-1.30905
-0.876183
-2.44592
-0.818457
-0.113705
-6.72453
-1.12267
-0.229292
-7.13048
-0.615382
-1.75825
-5.90266
-0.90145
-0.0731109
-5.168
-1.26941
-1.06095
0.0646341
-0.755626
-7.52202
-0.131803
-2.13513
-5.82304
-0.539871
-2.53766
-0.720296
-2.17117
0.00658656
-0.0313017
-4.27961
-5.82619
-2.28384
-4.0238
-0.898288
-0.0466891
-0.795958
-0.729983
-7.37764
-2.66629
-5.87035
0.128555
0.046207
-1.17592
-0.506659
-0.539983
-0.0743019
-2.01692
-1.11296
-3.09691
-0.791082
-1.03302
-4.01076
-4.98721
-1.48399
-7.13603
-1.44555
-0.660965
-7.99443
-0.395581
-0.4723
-1.30946
-7.79973
-7.072
-0.271941
-1.16704
-6.01255
-1.10301
-0.447528
-1.38722
-1.54334
-3.91751
-3.76355
-1.34439
-0.990451
-0.0105041
-1.55792
-7.91986
-6.24573
-5.83401
-0.913691
-0.234348
-1.47618
0.0580602
-0.334875
-0.54267
0.13413
-2.44806
-1.36678
-6.49
-1.28428
-0.335183
-1.29725
-1.76926
-1.59809
-0.720492
-8.09825
-6.04133
-1.8121
-4.88044
-0.238842
-0.983676
-1.16595
-1.11769
-0.652684
-0.0558314
-0.825192
-0.241468
-0.298485
-2.594
-0.576654
-0.313235
-4.42671
-1.53246
-4.44825
-1.68302
-1.66939
-1.77591
-1.90246
0.0854695
0.0849303
-1.28313
0.125893
-1.30475
-1.34472
-0.694337
-7.87965
-0.0868862
-2.40923
-2.89557
-1.1266
-7.99215
0.0143128
-0.608882
-0.908819
-1.54653
-1.77186
0.11442
-2.55481
-0.0311909
-0.734509
-0.917072
-0.328076
-0.232849
-4.50207
-6.23964
-2.49016
-4.52733
-4.53548
-4.08901
-2.29911
-0.370487
-6.19021
-7.00257
-0.289141
-0.956858
-1.2628
-1.23988
-1.44774
0.0156339
-4.10839
-1.47603
-1.46345
-2.4984
-1.22092
-1.21771
0.0174157
-1.26507