<VTKFile type="UnstructuredGrid" version="0.1" byte_order="LittleEndian">
  <UnstructuredGrid>
    <Piece NumberOfPoints="12168" NumberOfCells="23862">
      <Points>
        <DataArray type = "Float64" NumberOfComponents="3" format="ascii">
3.5 2.00105 0.0 
3.5 1.99895 0.0 
0 0 0.0 
12 0 0.0 
0 4 0.0 
12 4 0.0 
1.9851 0.464008 0.0 
6.22603 2.35879 0.0 
6.69678 2.88342 0.0 
3.53173 1.5077 0.0 
3.46822 2.00422 0.0 
3.4492 2.00609 0.0 
9.75011 0.429191 0.0 
3.24178 2.72816 0.0 
3.4284 2.00811 0.0 
4.2924 2.85568 0.0 
3.40943 2.00992 0.0 
5.99184 3.5981 0.0 
3.39055 2.01171 0.0 
10.5646 0.785159 0.0 
3.37064 2.01358 0.0 
3.76085 1.38706 0.0 
3.94143 1.77338 0.0 
2.84569 1.9199 0.0 
3.3441 2.01602 0.0 
4.37145 2.89078 0.0 
3.32932 2.01737 0.0 
3.31416 2.01873 0.0 
6.74157 0.371895 0.0 
3.30101 2.01991 0.0 
6.4956 2.24143 0.0 
5.4698 0.402619 0.0 
3.28104 2.02167 0.0 
11.443 2.87979 0.0 
3.26112 2.02341 0.0 
7.27082 2.03327 0.0 
7.00257 2.02554 0.0 
9.80318 0 0.0 
3.23123 2.02597 0.0 
4.87802 0.585968 0.0 
8.28155 1.27045 0.0 
3.21131 2.02765 0.0 
3.20135 2.02848 0.0 
3.18889 2.02951 0.0 
3.17635 2.03053 0.0 
0.759789 2.22952 0.0 
6.21499 1.68345 0.0 
3.16034 2.03183 0.0 
3.15052 2.03262 0.0 
0.628639 2.20506 0.0 
6.56507 2.38493 0.0 
3.13957 2.03349 0.0 
8.2554 3.03856 0.0 
3.1296 2.03426 0.0 
3.56836 3.04449 0.0 
3.12171 2.03487 0.0 
5.38344 1.70511 0.0 
3.11166 2.03562 0.0 
3.37362 3.04114 0.0 
3.10169 2.03635 0.0 
8.08727 1.03907 0.0 
3.0922 2.03704 0.0 
9.87757 2.91797 0.0 
3.08224 2.03774 0.0 
7.9699 1.83369 0.0 
3.07177 2.03847 0.0 
3.05986 2.03927 0.0 
3.04983 2.03993 0.0 
5.93701 3.89891 0.0 
3.03985 2.04058 0.0 
4.30691 0 0.0 
3.02987 2.04121 0.0 
8.66013 2.72876 0.0 
3.0199 2.04182 0.0 
3.00992 2.04242 0.0 
3.18067 2.9914 0.0 
3.00193 2.04289 0.0 
1.776 2.80497 0.0 
6.92709 2.09023 0.0 
2.98711 2.04373 0.0 
4.06836 1.84829 0.0 
2.97747 2.04427 0.0 
3.75 4 0.0 
2.96958 2.04469 0.0 
3.47062 0 0.0 
2.96201 2.04509 0.0 
8.72528 0.946082 0.0 
2.95043 2.04569 0.0 
9.9963 2.9126 0.0 
2.94005 2.0462 0.0 
2.93089 2.04665 0.0 
4.50343 2.33027 0.0 
2.59045 2.05749 0.0 
2.92007 2.04715 0.0 
9.25464 2.64568 0.0 
2.91208 2.04752 0.0 
4.90901 0.0899404 0.0 
10.8572 2.96282 0.0 
2.8996 2.04807 0.0 
2.8946 2.04828 0.0 
8.13323 0.520161 0.0 
2.88961 2.04847 0.0 
3.08846 1.86764 0.0 
2.88461 2.04866 0.0 
2.88003 2.04882 0.0 
8.55767 1.02848 0.0 
1.86232 0.851766 0.0 
2.87462 2.04899 0.0 
1.84032 1.02212 0.0 
2.86962 2.04914 0.0 
6.52954 2.17864 0.0 
4.50017 4 0.0 
2.85755 2.04945 0.0 
2.86213 2.04934 0.0 
3.70916 2.08801 0.0 
11.0785 1.20913 0.0 
2.85213 2.04957 0.0 
3.48232 3.06973 0.0 
2.84714 2.04967 0.0 
5.0013 2.24195 0.0 
2.84214 2.04975 0.0 
2.83714 2.04983 0.0 
3.65715 3.1968 0.0 
2.7008 2.0473 0.0 
2.83214 2.04989 0.0 
2.82714 2.04994 0.0 
4.25004 4 0.0 
2.81965 2.04999 0.0 
2.82215 2.04997 0.0 
5.55983 1.18487 0.0 
3.27945 1.28524 0.0 
2.81215 2.05001 0.0 
2.80472 2.05001 0.0 
2.79507 2.04997 0.0 
2.79965 2.05 0.0 
2.74971 1.15802 0.0 
5.00816 1.52729 0.0 
2.78966 2.04993 0.0 
1.48482 1.48093 0.0 
2.78466 2.04988 0.0 
9.45522 2.67434 0.0 
2.77966 2.04982 0.0 
7.88728 1.90278 0.0 
2.77466 2.04975 0.0 
6.46251 3.19396 0.0 
2.77216 2.04971 0.0 
2.76716 2.04961 0.0 
2.76467 2.04956 0.0 
8.49528 2.50007 0.0 
2.75967 2.04946 0.0 
2.75467 2.04934 0.0 
3.08086 0.950266 0.0 
2.74967 2.0492 0.0 
8.44444 0.813698 0.0 
2.74468 2.04906 0.0 
9.51856 2.75585 0.0 
2.73968 2.04891 0.0 
2.73469 2.04874 0.0 
9.41426 2.76593 0.0 
2.73219 2.04865 0.0 
2.72719 2.04847 0.0 
2.72261 2.04829 0.0 
7.07481 1.96072 0.0 
2.99719 0.800355 0.0 
2.7172 2.04806 0.0 
8.83747 2.67733 0.0 
3.68688 2.43344 0.0 
2.71221 2.04785 0.0 
6.62 2.79701 0.0 
2.70472 2.0475 0.0 
2.67763 2.04605 0.0 
2.69045 2.04677 0.0 
2.69475 2.047 0.0 
9.14251 0.641188 0.0 
1.84858 1.95718 0.0 
2.68477 2.04646 0.0 
5.22315 1.80655 0.0 
6.87807 0.532931 0.0 
2.67479 2.04588 0.0 
9.04251 2.70224 0.0 
2.66978 2.04558 0.0 
2.6648 2.04526 0.0 
9.48102 3.02398 0.0 
2.65981 2.04494 0.0 
8.79605 3.01706 0.0 
2.65482 2.04461 0.0 
2.38028 1.40227 0.0 
2.64741 2.04409 0.0 
8.98557 2.77888 0.0 
7.99404 0.835602 0.0 
2.63986 2.04355 0.0 
8.28014 0.713082 0.0 
2.63239 2.04298 0.0 
4.48189 1.1301 0.0 
2.62498 2.0424 0.0 
8.23459 1.16471 0.0 
2.62242 2.0422 0.0 
3.5918 3.23851 0.0 
2.61495 2.04158 0.0 
9.08968 2.78231 0.0 
2.60755 2.04095 0.0 
9.42671 3.11439 0.0 
6.67586 2.27382 0.0 
2.60001 2.04028 0.0 
5.25422 2.73436 0.0 
2.58798 2.03916 0.0 
2.59254 2.03959 0.0 
3.68248 0 0.0 
2.61904 1.43208 0.0 
8.97315 2.9414 0.0 
2.58259 2.03864 0.0 
9.42058 2.93769 0.0 
6.60273 2.70953 0.0 
2.57513 2.0379 0.0 
2.57264 2.03764 0.0 
2.57016 2.03735 0.0 
2.56768 2.03702 0.0 
2.56522 2.03662 0.0 
2.56276 2.03616 0.0 
2.56031 2.03565 0.0 
2.55788 2.03508 0.0 
2.55546 2.03446 0.0 
2.55305 2.03379 0.0 
2.55066 2.03307 0.0 
2.54828 2.0323 0.0 
2.54592 2.03148 0.0 
2.54357 2.03062 0.0 
2.54124 2.02971 0.0 
2.53893 2.02876 0.0 
2.53664 2.02777 0.0 
2.53436 2.02674 0.0 
2.5321 2.02567 0.0 
2.52986 2.02456 0.0 
2.52764 2.02342 0.0 
2.52544 2.02224 0.0 
2.52325 2.02103 0.0 
2.52108 2.01978 0.0 
2.51893 2.01851 0.0 
2.5168 2.0172 0.0 
2.51469 2.01587 0.0 
2.51259 2.01451 0.0 
2.51052 2.01312 0.0 
2.50845 2.0117 0.0 
2.50644 2.01022 0.0 
2.50456 2.00858 0.0 
2.50283 2.00678 0.0 
2.50139 2.00474 0.0 
2.50037 2.00246 0.0 
2.5 2 0.0 
2.50037 1.99754 0.0 
2.50139 1.99526 0.0 
2.50283 1.99322 0.0 
2.50456 1.99142 0.0 
2.50644 1.98978 0.0 
2.50845 1.9883 0.0 
2.51052 1.98688 0.0 
2.51259 1.98549 0.0 
2.51469 1.98413 0.0 
2.5168 1.9828 0.0 
2.51893 1.98149 0.0 
2.52108 1.98022 0.0 
2.52325 1.97897 0.0 
2.52544 1.97776 0.0 
2.52764 1.97658 0.0 
2.52986 1.97544 0.0 
2.5321 1.97433 0.0 
2.53436 1.97326 0.0 
2.53664 1.97223 0.0 
2.53893 1.97124 0.0 
2.54124 1.97029 0.0 
2.54357 1.96938 0.0 
2.54592 1.96852 0.0 
2.54828 1.9677 0.0 
2.55066 1.96693 0.0 
2.55305 1.96621 0.0 
2.55546 1.96554 0.0 
2.55788 1.96492 0.0 
2.56031 1.96435 0.0 
2.56276 1.96384 0.0 
2.56522 1.96338 0.0 
2.56768 1.96298 0.0 
2.57016 1.96265 0.0 
2.57264 1.96236 0.0 
2.57513 1.9621 0.0 
2.58259 1.96136 0.0 
12 2.76485 0.0 
2.58998 1.96065 0.0 
2.29722 2.40859 0.0 
2.59503 1.96018 0.0 
2.60001 1.95972 0.0 
6.67934 2.38431 0.0 
2.60499 1.95928 0.0 
2.60997 1.95884 0.0 
7.42991 0.938417 0.0 
2.61495 1.95842 0.0 
2.61993 1.95801 0.0 
3.5531 2.95756 0.0 
2.62491 1.9576 0.0 
2.62989 1.95721 0.0 
6.05757 2.47597 0.0 
2.63488 1.95683 0.0 
2.63986 1.95645 0.0 
2.64485 1.95609 0.0 
4.49088 0.755642 0.0 
2.64983 1.95574 0.0 
2.6623 1.9549 0.0 
2.65482 1.95539 0.0 
2.65981 1.95506 0.0 
8.17613 1.24546 0.0 
8.32922 1.37667 0.0 
2.66729 1.95458 0.0 
11.2956 1.25205 0.0 
5.12529 1.87094 0.0 
2.67228 1.95427 0.0 
2.67727 1.95397 0.0 
8.77818 2.48508 0.0 
2.68475 1.95354 0.0 
4 4 0.0 
2.69217 1.95314 0.0 
11.1454 3.21 0.0 
2.69723 1.95288 0.0 
2.69973 1.95275 0.0 
6.67706 3.19072 0.0 
2.70715 1.95239 0.0 
1.66582 1.31347 0.0 
1.43592 2.05397 0.0 
2.71221 1.95215 0.0 
2.7172 1.95194 0.0 
6.49351 3.12279 0.0 
2.7222 1.95173 0.0 
6.42887 2.27367 0.0 
2.72719 1.95153 0.0 
5.32901 2.82744 0.0 
10.5184 4 0.0 
2.73219 1.95135 0.0 
2.73718 1.95118 0.0 
4.05926 1.64371 0.0 
4.53953 2.05056 0.0 
2.74218 1.95102 0.0 
3.62872 1.98176 0.0 
2.74967 1.9508 0.0 
2.76007 1.95054 0.0 
2.7571 1.9506 0.0 
6.26644 2.54366 0.0 
1.27321 0 0.0 
2.76467 1.95043 0.0 
2.76966 1.95034 0.0 
6.6018 2.00745 0.0 
2.77216 1.95029 0.0 
2.77716 1.95021 0.0 
2.77966 1.95018 0.0 
2.78466 1.95012 0.0 
2.79209 1.95005 0.0 
2.51663 2.44619 0.0 
2.79715 1.95001 0.0 
2.48106 3.14664 0.0 
8.81525 2.84239 0.0 
2.80215 1.94999 0.0 
2.80715 1.94998 0.0 
5.50189 4 0.0 
2.81215 1.94999 0.0 
2.81715 1.95 0.0 
2.4071 2.53353 0.0 
6.537 2.04355 0.0 
5.60161 0.204026 0.0 
2.82215 1.95003 0.0 
2.82714 1.95006 0.0 
2.82964 1.95009 0.0 
3.09952 0.807078 0.0 
2.83707 1.95017 0.0 
2.84464 1.95029 0.0 
2.84964 1.95038 0.0 
1.73878 1.53314 0.0 
2.85463 1.95048 0.0 
6.30481 0.109834 0.0 
11.6154 4 0.0 
2.86213 1.95066 0.0 
2.86713 1.95079 0.0 
5.90883 0.822122 0.0 
2.87212 1.95093 0.0 
2.87712 1.95109 0.0 
7.39901 0.820287 0.0 
2.88211 1.95125 0.0 
7.52041 1.95005 0.0 
2.88711 1.95143 0.0 
3.94596 1.96105 0.0 
2.8921 1.95162 0.0 
12 1.23459 0.0 
2.8971 1.95183 0.0 
2.01895 3.15168 0.0 
2.90417 1.95213 0.0 
2.91208 1.95248 0.0 
2.10772 2.59125 0.0 
2.92207 1.95294 0.0 
3.96743 1.04828 0.0 
2.93157 1.95339 0.0 
1.73985 0 0.0 
2.94154 1.95387 0.0 
2.95152 1.95437 0.0 
2.97796 2.65642 0.0 
2.96201 1.95491 0.0 
4.6518 1.42598 0.0 
2.9715 1.95541 0.0 
8.21919 1.62771 0.0 
2.98147 1.95595 0.0 
0.966707 1.21788 0.0 
2.99145 1.95651 0.0 
5.78225 1.61899 0.0 
3.00193 1.95711 0.0 
4.90736 1.06883 0.0 
3.01143 1.95767 0.0 
9.50585 0.429397 0.0 
3.02139 1.95827 0.0 
9.08073 0.532386 0.0 
3.03137 1.95889 0.0 
3.03277 0.591193 0.0 
3.04135 1.95952 0.0 
2.77953 1.93828 0.0 
3.05132 1.96016 0.0 
6.74937 3.05174 0.0 
3.0618 1.96086 0.0 
6.67764 1.24793 0.0 
3.07177 1.96153 0.0 
0.769062 1.4551 0.0 
3.08126 1.96219 0.0 
8.84 0.957604 0.0 
3.09172 1.96293 0.0 
3.09837 1.96341 0.0 
10.1159 4 0.0 
1.95419 1.68374 0.0 
3.11166 1.96438 0.0 
6.44646 2.19183 0.0 
3.12114 1.96509 0.0 
3.1311 1.96585 0.0 
6.86748 2.2434 0.0 
3.14156 1.96667 0.0 
4.12972 2.10797 0.0 
3.15104 1.96742 0.0 
8.26271 1.45414 0.0 
10.2382 2.15814 0.0 
3.17146 1.96907 0.0 
2.52184 4 0.0 
3.18336 1.97004 0.0 
2.37793 2.58837 0.0 
3.20135 1.97152 0.0 
3.22072 1.97314 0.0 
2.38727 1.91075 0.0 
7.14441 3.52967 0.0 
3.23123 1.97403 0.0 
2.49238 1.20869 0.0 
3.24555 1.97525 0.0 
8.58402 0.30847 0.0 
3.26112 1.97659 0.0 
2.88082 1.4733 0.0 
2.72631 2.37875 0.0 
3.28104 1.97833 0.0 
1.72325 1.70926 0.0 
4.97697 0.776688 0.0 
3.30038 1.98003 0.0 
3.38899 2.03377 0.0 
8.7656 2.38481 0.0 
3.31787 1.9816 0.0 
8.37508 1.48322 0.0 
3.33233 1.9829 0.0 
0 3.32242 0.0 
8.68938 1.7583 0.0 
3.35073 1.98458 0.0 
1.50522 0 0.0 
3.37064 1.98642 0.0 
1.04781 0 0.0 
1.85135 1.10186 0.0 
3.39055 1.98829 0.0 
3.57117 1.22386 0.0 
10.3114 4 0.0 
3.41483 1.99059 0.0 
6.59792 1.73349 0.0 
[...]
<PointData>
  <DataArray type = "Float64" Name="BLMLevelSetLayer1" format="ascii">
0.108012
0.108012
-3.09167
-8.62387
-3.09167
-8.62387
-1.49761
-2.64139
-3.2083
-0.383953
0.108012
0.108014
-6.33621
-0.592622
0.108012
-1.05744
0.108013
-2.85169
0.108012
-7.06008
0.108012
-0.557162
-0.387711
0.0776087
0.108012
-1.1374
0.108012
0.108012
-3.51898
0.108014
-2.89722
-2.42741
0.108012
-7.88344
0.108012
-3.66294
-3.39464
-6.50455
0.108012
-1.86568
-4.72872
0.108012
0.108012
0.108012
0.108013
-1.64803
-2.62525
0.108013
0.108013
-1.77542
-2.981
0.108012
-4.75925
0.108012
-0.937061
0.108012
-1.79821
0.108012
-0.915648
0.108012
-4.57861
0.108012
-6.33513
0.108012
-4.36494
0.108012
0.108012
0.108012
-2.98082
0.108012
-2.04766
0.108012
-5.10318
0.108012
0.108012
-0.850256
0.108012
-0.971689
-3.32024
0.108011
-0.479978
0.108011
-1.90651
0.108011
-1.87932
0.108012
-5.22229
0.108012
-6.45193
0.108012
0.108014
-0.948047
0.0899978
0.108012
-5.68262
0.108012
-2.26467
-7.31179
0.108008
0.108009
-4.75548
0.108008
0.0131878
0.108008
0.10801
-5.04193
-1.19873
0.108008
-1.06667
0.108008
-2.92673
-2.12719
0.108008
0.108012
-0.118501
-7.51152
0.108013
-0.953949
0.108007
-1.41249
0.108013
0.108007
-1.09802
0.108013
0.108012
0.108007
-2.02702
0.108008
0.108012
-2.10685
-0.582394
0.108013
0.108009
0.108009
0.108008
-0.684547
-1.47218
0.108008
-1.03126
0.108008
-5.88515
0.108008
-4.28033
0.108009
-3.08566
0.108012
0.108007
0.108008
-4.91213
0.108008
0.108008
-0.901745
0.108008
-4.97651
0.108009
-5.95769
0.108008
0.108009
-5.8555
0.108012
0.108007
0.108013
-3.467
-1.04684
0.108007
-5.27213
-0.363036
0.108012
-3.11192
0.108009
0.10801
0.108011
0.108009
-5.69556
-0.545904
0.108009
-1.62584
-3.57446
0.108009
-5.47868
0.108009
0.108009
-5.95986
0.108009
-5.28462
0.108009
-0.481804
0.108008
-5.43243
-4.53416
0.108008
-4.84206
0.108012
-1.2031
0.108009
-4.69951
0.108012
-1.13245
0.108009
-5.536
0.108008
-5.92236
-3.07954
0.108008
-1.79331
0.108009
0.108012
-1.89917
-0.41652
-5.44533
0.108012
-5.8862
-3.07458
0.108002
0.108012
0.10793
0.107895
0.107925
0.108012
0.10793
0.107903
0.107931
0.108012
0.107937
0.107913
0.107938
0.108012
0.107944
0.107922
0.107945
0.108012
0.107951
0.107932
0.107953
0.108012
0.107957
0.10794
0.107959
0.108012
0.107963
0.107943
0.107966
0.108012
0.107658
0.1075
0.107578
0.108012
0.107
0.106625
0.107
0.108012
0.107578
0.1075
0.107658
0.108012
0.107966
0.107943
0.107963
0.108012
0.107959
0.10794
0.107957
0.108012
0.107953
0.107932
0.107951
0.108012
0.107945
0.107922
0.107944
0.108012
0.107938
0.107913
0.107937
0.108012
0.107931
0.107903
0.10793
0.108012
0.107925
0.107895
0.10793
0.108012
0.108002
0.108012
-8.42624
0.108009
-0.340707
0.108008
0.108009
-3.09434
0.108008
0.108009
-3.96248
0.108008
0.108009
-0.849058
0.108008
0.108009
-2.49328
0.108008
0.108009
0.108009
-1.48185
0.108009
0.108013
0.108009
0.108009
-4.62843
-4.76113
0.108008
-7.72329
-1.52231
0.108012
0.108008
-5.19231
0.108009
-1.95252
0.108013
-7.63236
0.108008
0.108009
-3.28449
0.108008
-0.970411
-0.958591
0.108012
0.108007
-3.08876
0.108013
-2.83352
0.108007
-1.89902
-7.18953
0.108012
0.108007
-0.554529
-0.932699
0.108012
-0.0218502
0.108008
0.10801
0.108007
-2.71114
-2.2325
0.108008
0.108008
-2.99379
0.108012
0.108007
0.108008
0.108008
0.108013
-0.304352
0.108007
-1.00462
-5.27342
0.108012
0.108007
-2.72101
0.108013
0.108008
-0.41261
-2.92929
-2.65578
0.108012
0.108007
0.108008
-1.04581
0.108007
0.108008
0.108008
-0.783684
0.108008
-3.27366
-8.24996
0.108012
0.108007
-2.57292
0.108013
0.108007
-3.96526
0.108013
-3.91269
0.108007
-0.339557
0.108013
-8.42629
0.108007
-1.12938
0.108011
0.108012
-0.596588
0.108012
-0.951354
0.108012
-2.01906
0.108012
0.108012
-0.503336
0.108012
-1.17843
0.108012
-4.62575
0.108012
-1.61233
0.108012
-2.20565
0.108012
-1.57893
0.108012
-6.09954
0.108012
-5.6622
0.108012
-1.25754
0.108012
0.0961054
0.108012
-3.30701
0.108012
-3.15718
0.108012
-1.70657
0.108012
-5.33258
0.108012
0.108011
-6.80325
-0.521646
0.108012
-2.84462
0.108012
0.108012
-3.26818
0.108012
-0.530723
0.108012
-4.68575
-6.63202
0.108012
-1.8519
0.108012
-0.473557
0.108012
0.108013
-0.0339905
-3.844
0.108012
-0.649919
0.108012
-5.24969
0.108012
-0.369681
-0.222101
0.108012
-0.72102
-1.80911
0.108012
0.086201
-5.17155
0.108012
-4.79427
0.108012
-2.71922
-5.08695
0.108012
-2.11738
0.108012
-2.35913
-0.995418
0.108012
-0.670306
-6.99063
0.108012
-3.00126
0.108012
-2.0157
0.108012
-0.99633
-3.22279
0.108012
-0.333399
-1.92616
-3.70855
-2.90028
-2.71805
-0.467547
-0.860298
-1.31261
-1.78036
-1.94024
-0.893191
0.060234
-5.28205
-0.69328
-3.48478
-2.35384
-2.13267
-2.24069
-2.87413
-4.76586
0.0231712
-4.52241
-0.322255
-1.16375
0.0842257
-7.39122
-7.80134
-3.96324
-0.65734
-0.263402
-1.19071
-2.35146
-6.9975
-3.32083
-0.066811
-0.88801
-3.83543
-6.7548
-0.957109
-8.11257
0.0376295
-8.42747
-4.2737
-1.08869
-1.73692
-1.84312
-2.44193
-8.39204
-8.39399
-8.3807
-1.95975
-1.23332
0.0707332
-2.81117
-5.90425
-8.45697
-6.00804
-2.94238
-7.59458
-1.04896
-4.49479
-0.67601
-8.48326
-8.52314
-8.57005
-7.89563
-0.600068
-0.459975
-0.385553
-0.917874
-2.48978
-1.48541
-6.37987
-2.8925
-1.22835
-2.55283
-0.43231
-0.763438
-4.27268
-1.13432
-0.721106
-4.00152
-2.03181
-2.9057
-4.61919
-1.06624
-2.12834
-1.84416
-4.67101
-1.8716
-2.12637
-2.82202
-0.672855
-0.94835
-1.05584
-2.45126
-2.24808
-1.8427
0.0443892
-1.86122
-1.88982
-0.690899
-2.94205
-2.44086
-2.71805
0.00752159
-2.86557
-2.38774
-2.54632
0.0653942
-0.780644
-2.90028
-0.539152
-3.75571
-4.8201
-2.29377
-5.15569
-2.94205
-2.40537
-2.39337
-2.40537
-6.39145
-2.50204
-2.5841
-2.6862
-2.80622
-0.443476
-5.57887
0.106394
-1.90059
-4.73816
-3.73644
-7.42746
-5.23291
-2.8446
-1.00566
0.0358086
-2.67689
-3.87728
-4.86235
-6.67212
-0.350814
-1.42225
-4.72858
-5.43044
-2.8779
-2.4686
-2.70815
-0.294607
-7.56935
-1.82537
-4.73645
-0.797072
-0.505954
0.0601118
-6.96814
-5.10336
-6.2209
-1.63032
-1.06705
-3.02919
-4.69854
-0.374506
-0.956959
-0.10372
-2.67125
-3.2668
-7.79658
-1.07452
0.0358399
-2.57241
-0.201865
-0.502431
-0.948615
-1.80187
-3.76082
-1.71444
-1.97241
-3.27116
-2.79119
-0.370326
-5.45126
-0.185308
-3.04265
-0.000209229
-5.15731
-1.4639
-4.21817
0.0929112
-0.601435
0.044611
-0.663675
-5.20225
-5.32887
-0.759993
-5.22463
-1.5724
-0.230237
-1.69638
-4.59315
-3.06485
-0.285611
-1.08365
-3.24674
-1.70137
0.0896854
-2.25615
-5.11459
-3.01
-3.24406
0.0951367
-4.8598
-3.00927
-3.12844
-0.249504
-1.0267
-0.0177043
-1.22188
-5.16501
-4.94747
-3.56329
-1.46566
-4.65912
-0.725211
-4.96386
0.0662844
-2.81817
-6.78706
-0.772854
-0.549123
-0.976878
-2.33981
0.0793785
-2.83789
-2.8852
-1.02174
-0.514627
0.0561244
-0.890558
0.0219771
-0.234523
-0.108548
-0.554831
-1.7939
-1.43878
0.0982389
-4.85291
-2.75482
-2.78657
-4.96868
-3.45015
-4.53776
0.0345631
-2.4314
-1.53991
-1.22339
-1.54937
-2.69039
-5.01223
-4.63217
-0.793515
-2.70109
-7.79288
-2.46882
-4.51942
-4.54977
-4.82499
0.0755652
-0.41633
-4.90358
-1.62224
0.0686815
-0.44613
0.0328953
-2.94727
-2.87645
-2.34685
-0.661988
-5.93229
0.0343802
-5.05149
-7.25574
-2.8442
-1.17534
-5.6246
-0.974526
-1.38318
-1.23934
-0.0798949
-0.290031
-0.397874
-4.49162
-2.53631
-0.22185
0.0315721
-0.202073
-3.23212
-8.36082
-2.76715
-1.14978
-0.561008
-3.30068
-0.0207135
-2.16908
-0.721983
-0.28225
-0.47054
-1.3818
-1.02527
-1.97242
-1.39254
-2.04826
-2.84451
-0.775167
-0.208215
-0.708746
-3.23458
-0.374376
-1.32458
-0.692593
-0.808966
-1.79565
-4.64789
-0.0240487
-1.25003
-2.9043
-0.756715
0.0135628
0.0628754
-1.92684
-0.327688
-3.13495
-5.25432
-0.304702
-2.03401
-1.15899
-0.319559
-4.42989
-0.847249
-0.203578
-8.15937
-0.971055
-0.62151
-7.64845
-1.38509
-1.58322
-0.257802
-4.40201
0.090831
-3.04445
-3.38485
-2.46857
-7.58019
-0.557782
-8.03571
-3.53829
-7.86478
-2.52845
-2.10419
-0.46097
-8.0709
-1.57775
-5.11997
-7.81913
-4.3668
-8.14931
-2.44857
0.0934241
-1.43673
-3.20144
-1.27099
-8.03426
-1.97089
-5.04193
-2.26132
-5.07509
-6.39102
-3.47846
-0.926746
-3.07668
-1.47109
-1.50287
0.0684334
-0.147032
-0.716282
-6.96234
-0.525978
-8.30103
-5.06861
-8.31774
-0.554624
-2.43028
-3.20377
-0.807518
-1.7206
-4.36368
-0.30411
-0.446704
-3.27962
-0.737725
-0.747469
-0.574118
-0.645639
-1.40841
-2.96506
-3.87791
-0.376529
-0.873164
-1.11
-1.28422
-1.6467
-3.57422
0.0434745
-0.172754
-3.11173
-1.62542
-4.39328
0.0788182
-2.24603
-1.36567
-1.70406
-0.188802
-2.41554
-0.278651
-2.04042
-5.13751
-0.767698
-1.24661
-1.4156
-1.3578
-5.12312
-1.1791
-5.24769
-2.07594
0.00942418
-3.19522
-1.77007
-0.0181532
-6.63436
-6.11508
-2.26322
0.0640306
-2.75937
-0.422638
-0.902899
-2.24587
-0.393608
-0.271754
-1.19101
-3.79207
0.0958037
-1.65368
0.0485482
-4.97925
-2.32917
-4.93097
-0.0199993
-3.02936
-1.44594
-0.941221
-6.1863
-1.58659
-0.125498
-5.12053
-2.02231
-5.34705
-5.0161
-1.37978
-0.037111
-2.6231
-3.30039
-0.901162
-1.9008
-6.31324
-1.96814
-1.47023
-0.414759
0.0936604
-2.34189
-6.58105
-2.06677
-2.66467
-1.32761
-0.621837
-0.802749
-0.402311
-1.03305
-0.799531
-0.390653
-2.0605
-0.573606
0.0437633
-1.05955
-2.31758
-2.84803
-3.99162
-0.380018
-3.31246
-1.51964
-1.21378
-0.60777
-2.52349
-3.17677
-0.511576
-1.17393
-0.351375
-0.0451551
-1.86399
-2.40592
-0.519318
-1.88579
-0.72382
-1.05946
-6.20595
-1.85004
-1.37231
-0.732708
-6.73174
-2.37774
-5.42254
-1.36256
-2.82117
0.0748651
-2.88086
-0.353633
-1.93056
-2.02339
-5.81897
-2.97862
-2.38156
-5.12392
-6.18078
-2.14681
-0.742792
-2.21423
-0.779821
-0.462195
-2.72451
-0.851426
-5.42918
-1.0284
-0.0119656
-0.479562
-1.77947
-0.372849
-2.07385
-2.70322
0.0217131
-0.941873
-0.784408
-1.45705
-5.69071
-0.932669
-1.28277
-0.141809
-2.45464
-0.795647
-2.13639
-0.147838
-1.02572
-0.888603
-1.38707
-2.17181
-3.95241
-2.08889
-0.888703
-5.3929
-4.41159
-2.48374
-0.428195
-1.50994
-1.49452
-2.39316
0.023651
-1.0927
-3.14496
-0.400238
-0.895862
-1.53936
-3.49197
-0.783167
-5.76056
-3.26799
-5.70915
-0.311788
-1.00347
-6.04791
-0.58677
-0.699958
-2.7803
-5.86959
-4.50292
-2.0754
-4.30206
-3.54041
-0.292144
-0.00165987
-0.435638
-1.00862
-0.0500713
0.0919574
-1.3842
0.104539
-2.37693
-3.07636
-0.762316
-0.902765
-0.421012
-0.764779
-0.806493
-0.820566
-6.62952
-3.49418
-5.09176
-0.167531
-1.84311
-4.1011
-0.489084
-0.61572
-1.18389
-7.08411
0.0699683
-0.62483
-2.01588
-0.300111
-2.13065
-0.8227
0.0989439
-1.26312
-6.17924
-6.45872
-1.28306
-2.25662
-0.648711
-2.06401
-0.690378
-1.76156
-0.831511
-1.2135
-0.524721
-2.6795
-1.25716
-0.633918
-1.56819
0.0720359
-0.851777
-0.61689
-3.37815
-0.998971
-2.0834
-6.56589
-0.466031
-3.11908
0.0779144
-3.23844
-2.14732
-1.43943
-0.98523
-0.54417
-6.84825
-0.593583
-0.290414
0.0824501
-0.587018
-7.23254
-0.840972
-3.54795
-5.27491
0.0972318
-5.31763
-3.18471
-1.03025
-6.10788
-6.72259
0.0313908
-3.44738
-0.971459
-4.3327
-1.56927
-4.49931
-0.358779
-0.78936
-4.99662
-0.743083
-0.592325
-0.644604
-1.36836
-0.588756
0.10094
-0.468683
-3.02396
-1.61264
0.104029
-1.84426
-0.700149
-4.97332
-0.546613
-2.89592
-3.54048
-1.85598
-0.873068
-2.15968
0.0195193
-4.08711
-0.63711
-3.95444
-4.69042
-2.30014
-7.74101
-0.771283
-5.56737
-6.95601
-1.2034
0.09862
-0.453246
-0.934321
-0.0481965
0.0655029
-0.556533
-1.17341
-0.75271
-0.712558
-1.77545
-7.59673
-0.788098
-0.791005
-6.05027
-0.863874
-0.630591
-3.67619
-2.15426
-2.97267
0.0775177
-3.08586
-3.98536
-1.59335
-1.05395
0.0197748
-0.470268
-4.55993
-3.42553
-0.529526
-5.42418
-1.15094
-4.74032
-3.89002
-4.90489
0.077121
-4.41464
-1.54004
-6.59899
0.0613613
-2.17877
-0.822369
-5.78469
-1.91922
-0.926681
-6.60792
-0.417156
-3.72426
-7.59594
-0.891457
-1.62399
-1.17773
0.0471421
-0.636219
-7.38781
-2.31858
-0.395118
-2.01742
-3.74114
-0.594215
-0.795216
-2.1625
-7.84813
-7.46624
-0.351034
-7.46681
-0.600092
-0.647216
-4.38776
-0.743284
-2.55711
-0.899449
0.0336622
-7.68766
-8.08084
-4.6694
-0.618571
-4.71133
-1.25927
-0.772776
-5.37997
-8.29628
-7.79084
-0.703365
-3.88189
-1.30441
-3.17671
-1.94511
-1.96653
-0.350201
-7.98838
-7.61778
-0.28639
-1.24373
-0.918729
-1.62495
-4.95178
0.0830392
-2.3837
-3.71401
-7.9012
-0.264849
-6.33019
-0.413543
-3.02153
-2.30431
-3.05153
-7.31302
-4.14007
-0.0401982
-3.85041
-1.74786
-3.12483
-3.68789
-8.17283
-4.40943
-0.343245
-7.92992
-0.5964
-7.98351
-4.55117
-4.07801
0.102119
-1.0178
-0.0879655
-0.43966
-1.96638
-1.89696
-4.05184
-4.94983
-5.70838
-0.99222
-0.812382
-0.529663
0.0737015
-5.21197
-0.570626
-0.346878
-2.26026
-7.2561
-5.85586
-6.48955
-0.74743
-0.717447
-2.89076
-7.20484
-2.74828
0.0870542
-2.63081
-3.04365
-0.744896
-1.13985
-2.04865
-8.20243
-2.07195
-0.652892
-0.277374
-8.13749
-2.21998
-0.367628
-3.23962
-1.56976
-5.1783
-7.10722
-0.899554
-3.60472
-0.357966
-8.00972
-2.98897
-5.85071
-0.673263
-2.7164
-3.07236
-2.94141
-0.89997
0.0970561
-0.270476
-1.38219
-6.66176
-2.27149
0.106178
-0.785199
-2.707
-0.600462
-3.45363
-2.0652
-0.718878
-1.71053
-3.08438
-1.09779
-0.527011
-2.31852
-0.438291
-3.85633
-4.237
-2.67199
0.0931273
0.0611709
-3.34855
-2.52835
-0.263112
0.102623
-0.48792
-4.81781
-0.761502
-0.646648
-0.545045
0.00587197
-3.85957
-0.684289
-4.07638
-0.548616
-2.29971
-6.46613
-1.21252
-0.709663
0.0974332
-0.965703
-4.71164
0.0226867
-0.894256
-0.653865
-4.10981
-2.90776
-0.173454
-4.75305
-1.9557
-0.764328
-1.03708
0.0522037
-3.64086
-1.56604
-0.447251
0.104998
-0.448879
-2.1569
-4.13201
-2.54859
-0.625662
-2.95846
-0.0628531
-1.00802
0.105625
-1.04055
-8.0349
-4.38638
-4.53314
-2.64601
-1.55796
-2.11703
-1.05032
-4.05179
-6.92232
-2.91533
-0.854006
-0.674408
-4.38151
-3.10459
-2.28699
-6.32802
-0.632603
-0.581607
0.089469
-1.71708
-1.32396
-6.81148
-1.89481
-4.38871
-6.48156
-0.418427
0.102451
-3.77762
0.102771
0.0705115
-2.81928
-3.95888
-2.09923
-8.18047
-8.11884
-8.20447
-7.71526
-6.36237
-4.85459
-1.33264
-6.15107
-6.90778
-0.906704
-1.27352
-2.53779
-0.813335
-1.12716
-1.05983
-1.74478
-1.69125
-6.53548
-1.51108
-2.46909
-1.15087
-2.5613
-0.73636
-3.24927
0.106384
-4.1942
-2.6232
-0.563307
-3.03493
-2.46823
-3.90377
-2.80549
-4.77401
-5.02486
0.024497
0.0273362
-5.36531
-1.13881
0.106554
-3.43391
-4.35938
-4.18666
-4.43127
-2.22658
-1.27532
-3.19171
-4.80116
-0.754878
-4.32461
-6.92124
-1.77043
-5.08026
-4.25976
-4.93806
-1.12718
-2.5408
-1.06147
-5.54521
0.0533502
0.106679
0.0997671
-2.19681
-0.583324
-3.52038
-3.55385
-6.12444
-1.32693
-2.36452
-3.379
-3.80341
-4.50437
0.0932135
-1.51545
-1.53655
-0.475476
-1.59232
-5.48836
-0.380636
-0.686154
-4.49138
-0.0723435
-2.92801
-2.78479
-2.23046
-5.42897
-0.0947411
0.103809
-0.569585
-6.24333
-6.83153
-1.05886
-0.55227
-0.660812
-1.09773
-0.357949
-1.06543
-6.26664
-0.780145
-2.03854
-4.05711
-4.64529
-7.02506
-0.336396
-0.459255
0.0960754
-5.70846
-0.512438
-5.16359
-4.28493
-4.58417
-2.55377
-5.61569
-4.00518
-0.044847
-2.40358
-3.56475
-2.63194
-0.0920956
-2.85531
-1.09348
-0.955614
-2.56039
-0.510449
-1.28268
-0.909164
-2.97451
-1.31855
-6.3296
-5.69526
-0.633812
-1.26649
-0.198387
-0.939814
-1.18195
-4.78113
-7.39608
-5.80258
-1.19941
-5.88451
-2.71049
-5.80873
-1.29053
0.108015
-3.97872
-5.73101
-1.20229
-1.12198
-1.15445
-4.68902
-4.78082
-3.58912
-7.65599
0.0961124
0.101652
-0.790283
-0.571386
-1.14417
-1.12986
-4.76891
-7.40308
-0.698516
-1.13781
-4.48094
0.106474
-2.83534
-1.31041
-1.77109
-0.517462
-5.26687
-1.04449
-2.74763
-6.0074
-7.0129
-5.22952
-0.416026
-0.699185
-1.03771
-7.60374
-0.0560398
-5.05374
-7.07443
-0.991557
-4.17255
-5.91466
-1.68168
-0.511809
-4.05099
-5.84683
-6.17431
-5.33286
-0.463779
-1.20626
-6.09736
-0.96036
-6.18548
-5.4056
-4.0937
-2.37802
-0.720064
-0.712302
-0.605625
-5.80945
-0.998164
-0.46147
-6.15092
-5.96267
-0.863008
-2.56226
-6.69174
0.107276
-6.82812
-5.50152
-6.00871
-6.0614
-6.19708
-6.20907
-1.04276
-1.11309
-2.4227
-0.807539
0.0639848
-6.01581
-0.695527
-6.28827
-6.28621
-6.07909
-6.0436
0.10649
-3.3544
-5.86101
-0.596251
-4.01282
0.101935
-6.54323
-6.49489
-6.62369
-6.12635
-6.33791
-6.63107
-3.44488
-6.51861
0.0530956
-6.66314
-6.23557
-6.39056
-3.3549
-5.73198
-5.2303
-2.62363
-0.195881
-5.43252
-0.234314
-2.6249
-5.37904
-2.61347
-0.955942
-3.46063
-1.43229
-0.0612679
-3.26221
-1.24245
-4.86984
-6.56444
-1.18934
-1.28671
-3.02011
-5.52805
-8.15457
-3.61883
-2.35555
-5.48274
-1.0475
-2.70002
-8.2129
-6.14319
-6.49621
-8.24668
-7.75729
-0.527151
-8.03956
-2.77655
-2.93832
-0.592899
-2.84201
-4.53845
-5.98235
-3.06815
-1.04815
-0.48034
-2.98415
-1.65322
-0.940165
-1.80442
-0.00655201
-5.49984
-3.01262
-1.07744
-5.63385
-1.98954
-2.39573
-2.51807
-3.5225
-3.3794
-0.453936
-1.07447
-5.96248
-1.31878
-1.26617
-0.0182083
-2.00085
-0.900007
-1.67134
-1.02282
-2.15365
-1.2107
-0.641464
-3.63287
-1.35379
-2.86616
-0.581286
-0.713559
-0.649158
-0.602977
-0.387243
-1.40445
-6.59996
-1.08614
-1.13303
-0.852216
-2.86672
-0.956015
-1.59563
-2.73618
-3.23612
-3.2526
0.0968521
0.0236803
-1.05953
-5.3308
0.0927923
-4.26033
-0.870653
-5.70356
0.0838579
-5.09224
-0.0210494
-0.709498
-2.27486
-0.817975
-0.518073
0.0877421
-3.96023
-1.02699
0.00539215
-0.0847794
-1.43948
-0.857974
-6.55062
-3.00939
-4.35847
-2.33802
-7.27874
-0.351905
-0.887084
-2.07554
-1.04709
-2.51422
-1.34544
-1.48154
-0.758676
-4.97334
-1.10252
0.0921896
-2.20558
-0.544806
-2.19412
-3.37216
-1.8851
-0.0673845
-3.60448
-5.34954
-6.43064
-6.5061
-4.87404
0.0920371
-0.0474567
-0.854841
-3.71484
-1.38062
-5.5341
-1.32702
-0.709566
-1.97512
-0.0286322
0.0841631
-0.239528
-5.39717
-5.5323
-0.915953
-0.118514
-0.947336
0.0155259
-0.732872
0.0950548
-1.50441
-2.81108
-0.548192
-5.4435
-0.919178
0.0792964
0.0879483
-1.28419
-1.78494
-0.0839987
-1.8015
-2.09875
-0.899688
-1.91632
-1.01896
0.0981262
-0.944782
-2.00756
-0.708154
-4.4564
-0.716544
-0.76007
-0.846853
-0.978233
-5.04241
-5.42218
-4.164
-3.29842
0.0337327
-0.889645
-0.896431
-1.08492
-4.15193
-1.84628
-0.842948
-2.72024
0.0956186
-2.25238
-2.54897
-0.776088
-0.139469
-5.66392
-4.52172
-1.23369
-1.4531
-2.34883
-0.718424
-0.041772
-5.89643
-5.11197
-0.508081
-4.84305
-1.52433
-1.27926
-0.241028
0.106599
-0.664128
-1.8109
-0.0829839
0.0378316
-3.65498
-0.00466845
-5.30413
-2.47219
-0.567178
-7.05404
-1.09706
-0.0727095
-5.9543
-6.13128
-0.813092
-0.0141784
-0.930112
-1.05612
-1.50379
-0.0923164
0.0430352
-0.76003
-0.956202
-3.6235
0.0226344
-0.68666
-1.18131
-2.0145
0.0861628
-1.10045
-0.66916
-2.62159
-1.17957
-2.83637
-4.05031
-4.88113
-6.59314
-0.0308449
-0.0449123
-0.473615
-0.258346
-0.410938
-5.68864
-1.27011
-1.24654
-3.35836
-0.0219344
-0.650646
-0.844921
0.0881935
-0.10849
0.102029
-0.783086
-0.864499
-0.0972714
-1.45994
-0.807927
-5.92966
-0.837522
0.0595729
-0.112373
-4.30655
-1.89356
-7.22834
-0.322193
-0.74433
-6.85314
-0.321818
-7.39175
-5.7685
-1.19524
-0.530457
-1.33605
-5.85319
0.0372
-0.153692
-1.29612
-6.75154
-1.14967
-2.56191
-7.15748
-0.642385
-0.078169
-1.05725
-0.928453
-0.302981
-5.195
-0.563681
-0.925545
-0.0599355
-2.05583
-7.54902
-6.093
-2.16213
-5.85005
-0.493492
-0.809679
-2.5252
-2.19817
-0.818933
-2.62129
-0.75301
-0.689178
-2.31085
-0.100904
-0.422564
-0.274067
-2.08252
-0.756986
-7.40464
-2.69329
-0.285771
-0.26354
-3.11946
-1.20293
-1.33607
-1.11946
0.0868476
-2.04393
-4.8861
-4.03695
-6.2922
-1.39399
-0.365423
-4.13701
-1.51099
-7.16304
-1.47256
-1.01858
-8.02143
-1.79973
-0.360367
-1.84475
-7.82674
-7.09901
-0.26366
-1.19404
-3.79157
-1.13002
-1.48356
-1.41422
-1.57035
-0.110916
-3.79055
-1.37139
0.0984431
-5.19369
-1.58493
-7.94686
-1.59851
-0.265285
-0.940694
0.0318005
0.107426
-0.359316
-1.07212
-0.569673
-1.02292
-2.47506
-2.61082
-6.517
-1.31129
0.100107
-1.32426
-1.79627
-1.62509
0.0568266
-8.12525
-0.724054
-3.71882
-4.34404
-4.13689
-0.0806485
-1.14487
-0.974552
-0.679687
-0.0133451
0.0577512
-0.340535
-1.99743
-0.604883
-0.941189
-1.27062
-4.45371
-1.55946
-4.47525
-1.71003
-1.69639
-0.0154407
-1.92946
0.0440089
-2.92557
-1.31013
-1.14179
-1.33176
-1.37172
-1.15388
-7.90665
-4.45079
-2.43624
-0.638138
-4.83782
-8.01915
0.00253709
-1.20745
-5.30003
-1.87112
-1.50309
-0.0551935
-2.58181
-5.14726
-1.76759
0.0860926
-0.0123638
-3.93819
-4.52907
-4.37116
-2.51716
-4.55433
-4.56248
-4.11601
-2.32611
-0.39749
-0.803443
-7.02957
-0.982927
0.103296
-1.28981
-0.0566617
-1.47474
-2.82429
-1.2498