<VTKFile type="UnstructuredGrid" version="0.1" byte_order="LittleEndian">
  <UnstructuredGrid>
    <Piece NumberOfPoints="6564" NumberOfCells="12656">
      <Points>
        <DataArray type = "Float64" NumberOfComponents="3" format="ascii">
3.5 2.00105 0.0 
3.5 1.99895 0.0 
0 0 0.0 
12 0 0.0 
0 4 0.0 
12 4 0.0 
6.29197 2.31448 0.0 
3.45216 2.00847 0.0 
9.94828 3.01097 0.0 
1.92493 2.97496 0.0 
3.46822 2.00422 0.0 
3.4492 2.00609 0.0 
9.75011 0.429191 0.0 
2.10845 0.752164 0.0 
3.4284 2.00811 0.0 
3.08807 1.95055 0.0 
3.40943 2.00992 0.0 
4.75094 2.06044 0.0 
3.39055 2.01171 0.0 
10.5646 0.785159 0.0 
3.37064 2.01358 0.0 
2.9289 1.94673 0.0 
4.04851 2.15296 0.0 
6.87756 3.77335 0.0 
3.3441 2.01602 0.0 
2.38805 0.664538 0.0 
3.32932 2.01737 0.0 
3.31416 2.01873 0.0 
3.25318 2.34864 0.0 
3.30101 2.01991 0.0 
8.39215 0.904636 0.0 
2.34176 1.29082 0.0 
3.28104 2.02167 0.0 
11.443 2.87979 0.0 
3.26112 2.02341 0.0 
3.41966 1.98773 0.0 
3.58127 1.96949 0.0 
2.93437 1.93429 0.0 
3.23123 2.02597 0.0 
2.79181 0.918691 0.0 
8.28155 1.27045 0.0 
3.21131 2.02765 0.0 
3.20135 2.02848 0.0 
3.18889 2.02951 0.0 
3.17635 2.03053 0.0 
0.759789 2.22952 0.0 
1.16833 1.74408 0.0 
3.16034 2.03183 0.0 
3.15052 2.03262 0.0 
0.628639 2.20506 0.0 
9.02115 4 0.0 
3.13957 2.03349 0.0 
2.48103 2.13794 0.0 
3.1296 2.03426 0.0 
3.23484 2.22859 0.0 
3.12171 2.03487 0.0 
3.26192 2.0353 0.0 
3.11166 2.03562 0.0 
2.97186 1.93913 0.0 
3.10169 2.03635 0.0 
2.51836 1.97912 0.0 
3.0922 2.03704 0.0 
9.87757 2.91797 0.0 
3.08224 2.03774 0.0 
10.5232 0 0.0 
3.07177 2.03847 0.0 
3.05986 2.03927 0.0 
3.04983 2.03993 0.0 
2.14662 1.23635 0.0 
3.03985 2.04058 0.0 
4.30691 0 0.0 
3.02987 2.04121 0.0 
8.66013 2.72876 0.0 
3.0199 2.04182 0.0 
3.00992 2.04242 0.0 
9.02497 3.02814 0.0 
3.00193 2.04289 0.0 
2.24493 1.09945 0.0 
1.99136 0.46596 0.0 
2.98711 2.04373 0.0 
2.51281 1.97775 0.0 
2.97747 2.04427 0.0 
2.75912 0.841543 0.0 
2.96958 2.04469 0.0 
3.47062 0 0.0 
2.96201 2.04509 0.0 
3.09546 2.05186 0.0 
2.95043 2.04569 0.0 
9.9963 2.9126 0.0 
2.94005 2.0462 0.0 
2.93089 2.04665 0.0 
7.13144 3.76328 0.0 
3.54494 3.10276 0.0 
2.92007 2.04715 0.0 
9.25464 2.64568 0.0 
2.91208 2.04752 0.0 
4.90901 0.0899404 0.0 
10.8572 2.96282 0.0 
2.8996 2.04807 0.0 
2.8946 2.04828 0.0 
8.13323 0.520161 0.0 
2.88961 2.04847 0.0 
9.00962 3.58604 0.0 
2.88461 2.04866 0.0 
2.88003 2.04882 0.0 
2.23871 2.54735 0.0 
4.89274 1.80891 0.0 
2.87462 2.04899 0.0 
4.91952 1.8793 0.0 
2.86962 2.04914 0.0 
6.37226 3.79174 0.0 
8.21736 3.45024 0.0 
2.85755 2.04945 0.0 
2.86213 2.04934 0.0 
10.9402 0 0.0 
2.57332 2.09656 0.0 
2.85213 2.04957 0.0 
11.0786 1.20918 0.0 
2.84714 2.04967 0.0 
4.97208 1.80831 0.0 
2.84214 2.04975 0.0 
2.83714 2.04983 0.0 
4.92758 2.16806 0.0 
2.7008 2.0473 0.0 
2.83214 2.04989 0.0 
2.82714 2.04994 0.0 
8.95454 3.29626 0.0 
2.81965 2.04999 0.0 
2.82215 2.04997 0.0 
2.91523 2.08308 0.0 
7.53866 2.98361 0.0 
2.81215 2.05001 0.0 
2.80472 2.05001 0.0 
2.79507 2.04997 0.0 
2.79965 2.05 0.0 
5.55584 1.18487 0.0 
2.76988 2.05334 0.0 
2.78966 2.04993 0.0 
8.13196 4 0.0 
2.78466 2.04988 0.0 
9.45522 2.67434 0.0 
2.77966 2.04982 0.0 
9.53318 2.93248 0.0 
2.77466 2.04975 0.0 
1.83992 2.9152 0.0 
2.77216 2.04971 0.0 
2.76716 2.04961 0.0 
2.76467 2.04956 0.0 
2.88761 1.91732 0.0 
2.75967 2.04946 0.0 
2.75467 2.04934 0.0 
9.08504 2.94369 0.0 
2.74967 2.0492 0.0 
9.19454 0.537532 0.0 
2.74468 2.04906 0.0 
9.51856 2.75585 0.0 
2.73968 2.04891 0.0 
2.73469 2.04874 0.0 
9.41426 2.76593 0.0 
2.73219 2.04865 0.0 
2.72719 2.04847 0.0 
2.72261 2.04829 0.0 
2.9069 0.941299 0.0 
3.9866 2.29504 0.0 
2.7172 2.04806 0.0 
8.83747 2.67733 0.0 
3.26522 0.898365 0.0 
2.71221 2.04785 0.0 
1.98904 2.59055 0.0 
2.70472 2.0475 0.0 
2.67763 2.04605 0.0 
2.69045 2.04677 0.0 
2.69475 2.047 0.0 
8.57609 3.89423 0.0 
8.49957 0.920112 0.0 
2.68477 2.04646 0.0 
3.21099 1.75099 0.0 
5.43359 0.885052 0.0 
2.67479 2.04588 0.0 
9.04251 2.70224 0.0 
2.66978 2.04558 0.0 
2.6648 2.04526 0.0 
8.08698 1.0391 0.0 
2.65981 2.04494 0.0 
8.79605 3.01706 0.0 
2.65482 2.04461 0.0 
6.03781 2.99966 0.0 
2.64741 2.04409 0.0 
8.98557 2.77888 0.0 
7.99404 0.835602 0.0 
2.63986 2.04355 0.0 
9.25268 3.02892 0.0 
2.63239 2.04298 0.0 
8.27174 0.700244 0.0 
2.62498 2.0424 0.0 
8.23459 1.16471 0.0 
2.62242 2.0422 0.0 
8.44244 0.812526 0.0 
2.61495 2.04158 0.0 
9.08968 2.78231 0.0 
2.60755 2.04095 0.0 
3.26069 1.9421 0.0 
7.02001 2.11165 0.0 
2.60001 2.04028 0.0 
9.42673 3.11425 0.0 
2.58798 2.03916 0.0 
2.59254 2.03959 0.0 
8.13811 0.956207 0.0 
9.4811 3.02373 0.0 
8.97315 2.9414 0.0 
2.58259 2.03864 0.0 
7.46878 0 0.0 
2.32698 2.06792 0.0 
2.57513 2.0379 0.0 
2.57264 2.03764 0.0 
2.57016 2.03735 0.0 
2.56768 2.03702 0.0 
2.56522 2.03662 0.0 
2.56276 2.03616 0.0 
2.56031 2.03565 0.0 
2.55788 2.03508 0.0 
2.55546 2.03446 0.0 
2.55305 2.03379 0.0 
2.55066 2.03307 0.0 
2.54828 2.0323 0.0 
2.54592 2.03148 0.0 
2.54357 2.03062 0.0 
2.54124 2.02971 0.0 
2.53893 2.02876 0.0 
2.53664 2.02777 0.0 
2.53436 2.02674 0.0 
2.5321 2.02567 0.0 
2.52986 2.02456 0.0 
2.52764 2.02342 0.0 
2.52544 2.02224 0.0 
2.52325 2.02103 0.0 
2.52108 2.01978 0.0 
2.51893 2.01851 0.0 
2.5168 2.0172 0.0 
2.51469 2.01587 0.0 
2.51259 2.01451 0.0 
2.51052 2.01312 0.0 
2.50845 2.0117 0.0 
2.50644 2.01022 0.0 
2.50456 2.00858 0.0 
2.50283 2.00678 0.0 
2.50139 2.00474 0.0 
2.50037 2.00246 0.0 
2.5 2 0.0 
2.50037 1.99754 0.0 
2.50139 1.99526 0.0 
2.50283 1.99322 0.0 
2.50456 1.99142 0.0 
2.50644 1.98978 0.0 
2.50845 1.9883 0.0 
2.51052 1.98688 0.0 
2.51259 1.98549 0.0 
2.51469 1.98413 0.0 
2.5168 1.9828 0.0 
2.51893 1.98149 0.0 
2.52108 1.98022 0.0 
2.52325 1.97897 0.0 
2.52544 1.97776 0.0 
2.52764 1.97658 0.0 
2.52986 1.97544 0.0 
2.5321 1.97433 0.0 
2.53436 1.97326 0.0 
2.53664 1.97223 0.0 
2.53893 1.97124 0.0 
2.54124 1.97029 0.0 
2.54357 1.96938 0.0 
2.54592 1.96852 0.0 
2.54828 1.9677 0.0 
2.55066 1.96693 0.0 
2.55305 1.96621 0.0 
2.55546 1.96554 0.0 
2.55788 1.96492 0.0 
2.56031 1.96435 0.0 
2.56276 1.96384 0.0 
2.56522 1.96338 0.0 
2.56768 1.96298 0.0 
2.57016 1.96265 0.0 
2.57264 1.96236 0.0 
2.57513 1.9621 0.0 
2.58259 1.96136 0.0 
9.4207 2.93743 0.0 
2.58998 1.96065 0.0 
9.13043 3.78826 0.0 
2.59503 1.96018 0.0 
2.60001 1.95972 0.0 
6.22005 2.37044 0.0 
2.60499 1.95928 0.0 
2.60997 1.95884 0.0 
6.91081 2.08293 0.0 
2.61495 1.95842 0.0 
2.61993 1.95801 0.0 
1.92815 0.942292 0.0 
2.62491 1.9576 0.0 
2.62989 1.95721 0.0 
6.98955 2.0142 0.0 
2.63488 1.95683 0.0 
2.63986 1.95645 0.0 
2.64485 1.95609 0.0 
2.88615 0.85996 0.0 
2.64983 1.95574 0.0 
2.6623 1.9549 0.0 
2.65482 1.95539 0.0 
2.65981 1.95506 0.0 
8.17613 1.24546 0.0 
8.34154 0.994029 0.0 
2.66729 1.95458 0.0 
11.2956 1.25205 0.0 
8.33045 1.37709 0.0 
2.67228 1.95427 0.0 
2.67727 1.95397 0.0 
6.22457 1.68412 0.0 
2.68475 1.95354 0.0 
5.54343 0.890313 0.0 
2.69217 1.95314 0.0 
11.1454 3.21 0.0 
2.69723 1.95288 0.0 
2.69973 1.95275 0.0 
2.01011 0.970325 0.0 
2.70715 1.95239 0.0 
5.10406 2.07466 0.0 
2.70263 2.05767 0.0 
2.71221 1.95215 0.0 
2.7172 1.95194 0.0 
4.78099 1.94788 0.0 
2.7222 1.95173 0.0 
9.88084 4 0.0 
2.72719 1.95153 0.0 
4.98906 2.23323 0.0 
4.89974 2.23849 0.0 
2.73219 1.95135 0.0 
2.73718 1.95118 0.0 
4.31319 2.91736 0.0 
8.49115 0 0.0 
2.74218 1.95102 0.0 
5.3774 1.70986 0.0 
2.74967 1.9508 0.0 
2.76007 1.95054 0.0 
2.7571 1.9506 0.0 
3.36568 2.2764 0.0 
1.27321 0 0.0 
2.76467 1.95043 0.0 
2.76966 1.95034 0.0 
10.1649 1.65287 0.0 
2.77216 1.95029 0.0 
2.77716 1.95021 0.0 
2.77966 1.95018 0.0 
2.78466 1.95012 0.0 
2.79209 1.95005 0.0 
5.03873 1.95058 0.0 
2.79715 1.95001 0.0 
3.45845 2.94319 0.0 
1.92798 1.35122 0.0 
2.80215 1.94999 0.0 
2.80715 1.94998 0.0 
5.03725 2.08707 0.0 
2.81215 1.94999 0.0 
2.81715 1.95 0.0 
4.51052 0.762264 0.0 
4.79212 2.10148 0.0 
9.26191 0 0.0 
2.82215 1.95003 0.0 
2.82714 1.95006 0.0 
2.82964 1.95009 0.0 
3.65447 2.89863 0.0 
2.83707 1.95017 0.0 
2.84464 1.95029 0.0 
2.84964 1.95038 0.0 
2.89729 2.14643 0.0 
2.85463 1.95048 0.0 
5.01917 1.52083 0.0 
5.09414 1.88439 0.0 
2.86213 1.95066 0.0 
2.86713 1.95079 0.0 
4.29616 2.84821 0.0 
2.87212 1.95093 0.0 
2.87712 1.95109 0.0 
9.56433 0.538271 0.0 
2.88211 1.95125 0.0 
8.4502 3.89275 0.0 
2.88711 1.95143 0.0 
3.10824 0.901132 0.0 
2.8921 1.95162 0.0 
2.62871 0.832394 0.0 
2.8971 1.95183 0.0 
5.24929 1.82803 0.0 
2.90417 1.95213 0.0 
2.91208 1.95248 0.0 
5.14871 1.60688 0.0 
2.92207 1.95294 0.0 
7.63071 3.75635 0.0 
2.93157 1.95339 0.0 
1.73985 0 0.0 
2.94154 1.95387 0.0 
2.95152 1.95437 0.0 
3.265 1.95283 0.0 
2.96201 1.95491 0.0 
6.67078 2.29597 0.0 
2.9715 1.95541 0.0 
2.99932 0.894603 0.0 
2.98147 1.95595 0.0 
0.966707 1.21788 0.0 
2.99145 1.95651 0.0 
5.25744 2.73845 0.0 
3.00193 1.95711 0.0 
6.52802 2.19105 0.0 
3.01143 1.95767 0.0 
2.90505 2.09926 0.0 
3.02139 1.95827 0.0 
2.52103 2.06719 0.0 
3.03137 1.95889 0.0 
3.5 4 0.0 
3.04135 1.95952 0.0 
3.24185 1.07672 0.0 
3.05132 1.96016 0.0 
4.36229 2.87058 0.0 
3.0618 1.96086 0.0 
5.47151 2.9601 0.0 
3.07177 1.96153 0.0 
0.769062 1.4551 0.0 
3.08126 1.96219 0.0 
2.3793 1.37189 0.0 
3.09172 1.96293 0.0 
3.09837 1.96341 0.0 
5.34521 2.79577 0.0 
1.75108 2.31654 0.0 
3.11166 1.96438 0.0 
9.07439 3.2972 0.0 
3.12114 1.96509 0.0 
3.1311 1.96585 0.0 
9.51216 0.860546 0.0 
3.14156 1.96667 0.0 
5.28128 3.74777 0.0 
3.15104 1.96742 0.0 
8.49501 2.49976 0.0 
8.63805 4 0.0 
3.17146 1.96907 0.0 
1.27291 1.91302 0.0 
3.18336 1.97004 0.0 
6.42434 2.17873 0.0 
3.20135 1.97152 0.0 
3.22072 1.97314 0.0 
6.86225 2.24295 0.0 
8.33875 3.46119 0.0 
3.23123 1.97403 0.0 
6.44308 2.27009 0.0 
3.24555 1.97525 0.0 
8.69184 0.104354 0.0 
3.26112 1.97659 0.0 
6.05132 2.47649 0.0 
6.57934 2.01815 0.0 
3.28104 1.97833 0.0 
2.41843 2.51223 0.0 
6.49619 3.12585 0.0 
3.30038 1.98003 0.0 
8.26583 1.45566 0.0 
8.58402 0.30847 0.0 
3.31787 1.9816 0.0 
4.37833 2.58241 0.0 
3.33233 1.9829 0.0 
8.37767 1.48423 0.0 
8.68938 1.7583 0.0 
3.35073 1.98458 0.0 
1.50522 0 0.0 
3.37064 1.98642 0.0 
1.04781 0 0.0 
5.11017 0.394067 0.0 
3.39055 1.98829 0.0 
8.22608 1.63221 0.0 
6.58569 2.36933 0.0 
[...]
<PointData>
  <DataArray type = "Float64" Name="BLMLevelSetLayer1" format="ascii">
0.310535
0.310535
-2.88915
-8.42135
-2.88915
-8.42135
-2.49897
0.307879
-6.21635
-0.815348
0.310535
0.310537
-6.13369
-0.982119
0.310535
0.29845
0.310536
-0.941817
0.310535
-6.85756
0.310535
0.30401
-0.258622
-3.50377
0.310535
-1.00035
0.310535
0.310536
-0.0128346
0.310537
-4.70251
-0.397132
0.310535
-7.68092
0.310535
0.307229
0.224089
0.291326
0.310535
-0.720807
-4.52619
0.310535
0.310535
0.310535
0.310536
-1.44551
-1.04598
0.310536
0.310536
-1.5729
-5.56134
0.310535
0.187204
0.310535
0.108328
0.310536
0.298616
0.310535
0.294256
0.310535
0.308149
0.310535
-6.13261
0.310535
-6.99162
0.310535
0.310535
0.310535
-0.522048
0.310535
-1.84513
0.310535
-4.90066
0.310535
0.310535
-5.30909
0.310535
-0.609229
-1.29109
0.310534
0.304124
0.310534
-0.798287
0.310534
-1.6768
0.310535
0.295512
0.310535
-6.24941
0.310535
0.310537
-3.7259
-0.790252
0.310535
-5.48009
0.310535
-2.06215
-7.10926
0.310531
0.310532
-4.55296
0.310531
-5.42254
0.310531
0.310533
-0.28776
-1.09511
0.310531
-1.11402
0.310531
-3.0742
-4.62441
0.310531
0.310535
-7.39356
0.251972
0.310536
-7.30913
0.31053
-1.17383
0.310536
0.31053
-1.12678
0.310536
0.310535
0.31053
-5.29567
0.310531
0.310535
0.274863
-3.84593
0.310536
0.310532
0.310532
0.310531
-1.90062
0.30686
0.310532
-4.73435
0.310532
-5.68263
0.310532
-5.79412
0.310532
-0.813405
0.310535
0.31053
0.310532
0.276424
0.310531
0.310531
-5.35349
0.310532
-5.56854
0.310532
-5.75517
0.310531
0.310532
-5.65298
0.310535
0.31053
0.310536
-0.699694
-0.257974
0.31053
-5.06961
-0.764246
0.310535
-0.467184
0.310532
0.310533
0.310534
0.310532
-5.10711
-4.80411
0.310532
0.0899549
-1.92095
0.310532
-5.27615
0.310532
0.310532
-4.3758
0.310532
-5.0821
0.310532
-2.41668
0.310531
-5.22991
-4.33163
0.310532
-5.53325
0.310535
-4.63478
0.310532
-4.49699
0.310535
-4.77231
0.310532
-5.33347
0.310531
0.276211
-3.21121
0.310531
-5.71984
0.310532
0.310535
-4.44335
-5.75736
-5.24281
0.310535
-4.13323
0.125037
0.310525
0.310535
0.310453
0.310419
0.310448
0.310535
0.310453
0.310427
0.310454
0.310535
0.31046
0.310436
0.310461
0.310535
0.310467
0.310445
0.310468
0.310535
0.310474
0.310455
0.310476
0.310535
0.31048
0.310463
0.310482
0.310535
0.310486
0.310466
0.310489
0.310535
0.310181
0.310023
0.310101
0.310535
0.309523
0.309149
0.309523
0.310535
0.310101
0.310023
0.310181
0.310535
0.310489
0.310466
0.310486
0.310535
0.310482
0.310463
0.31048
0.310535
0.310476
0.310455
0.310474
0.310535
0.310468
0.310445
0.310467
0.310535
0.310461
0.310436
0.31046
0.310535
0.310454
0.310427
0.310453
0.310535
0.310448
0.310419
0.310453
0.310535
0.310525
0.310535
-5.68375
0.310532
-5.59673
0.310531
0.310532
-2.43448
0.310531
0.310532
-3.10126
0.310531
0.310532
-0.884853
0.310532
0.310532
-3.17904
0.310532
0.310532
0.310532
-0.780425
0.310532
0.310536
0.310532
0.310532
-4.42591
-4.6342
0.310531
-7.52077
-4.55978
0.310535
0.310531
-2.43216
0.310532
-2.01426
0.310536
-7.42984
0.310531
0.310532
-0.821052
0.310531
-1.29521
0.300272
0.310535
0.31053
-0.971472
0.310536
-6.37608
0.31053
-1.19652
-1.1092
0.310535
0.31053
-0.914574
-5.06603
0.310535
-1.589
0.310532
0.310533
0.31053
0.0492747
-2.02998
0.310531
0.310532
-6.36338
0.310535
0.31053
0.310532
0.310531
0.310536
-1.22896
0.31053
-0.623213
-0.551336
0.310535
0.31053
-1.22912
0.310536
0.310531
-1.28651
-0.985478
-5.78827
0.310535
0.31053
0.310532
-0.600243
0.31053
0.310531
0.310531
0.212346
0.310531
-1.2821
-1.28772
0.310535
0.31053
-0.852026
0.310536
0.31053
-5.92723
0.310536
-4.98881
0.31053
-0.749963
0.310536
-0.812002
0.31053
-1.44708
0.310534
0.310535
-1.38415
0.310535
-4.17766
0.310535
-1.81653
0.310535
0.310535
0.286529
0.310535
-2.87393
0.310535
-0.750294
0.310535
-1.4098
0.310535
-1.59534
0.310535
-2.72344
0.310535
0.259153
0.310535
0.268082
0.310535
-1.67941
0.310535
-0.584581
0.310535
-0.914057
0.310535
-1.88187
0.310535
-1.50405
0.310535
-0.308668
0.310535
0.310534
-1.69854
-0.501975
0.310535
-5.41256
0.310535
0.310535
-5.80845
0.310535
-2.18426
0.310535
-4.70931
-5.20266
0.310535
-0.92069
0.310535
-2.6192
0.310535
0.310536
-3.0604
-4.74372
0.310535
-2.64482
0.310535
-5.21619
0.310535
-2.28471
-2.76886
0.310535
-0.186483
-2.88983
0.310535
-4.48616
-5.04716
0.310535
-0.742764
0.310535
-4.59422
-4.88443
0.310535
-1.91486
0.310535
-2.15661
-1.96285
0.310535
-4.42976
-2.79705
0.310535
-2.90885
0.310535
-8.22334
0.310535
-1.69721
-3.94933
0.310535
-8.04658
-8.24863
-1.30967
-2.69775
-2.51552
-2.13411
-2.74665
-5.34325
-6.5668
-1.73771
-3.68092
-4.83135
-5.22532
-1.51159
-8.28112
-2.15132
-1.93015
-2.03816
-5.68714
-4.56334
-5.62395
-4.31989
-1.7251
-8.36757
-6.76667
-7.1887
-7.59881
-3.76072
-8.32076
-1.93541
-8.22339
-3.84619
-6.79498
-0.187981
-2.06246
-6.97473
-0.478958
-6.55228
-4.60845
-7.91005
-5.59694
-8.22495
-5.4205
-3.11148
-2.69917
-1.6406
-4.80101
-8.18951
-8.19147
-8.17818
-1.75723
-2.22442
-7.18408
-0.963704
-2.86187
-4.67929
-8.25333
-5.80695
-7.39206
-2.51659
-5.30483
-3.25505
-8.28073
-8.32062
-8.36753
-7.69311
-2.80671
-0.751815
-6.06059
-2.16121
-2.28726
-5.22086
-1.70399
-0.355105
-1.92459
-2.35031
-1.75
-1.16611
-0.751209
-1.99976
-1.82448
-2.01188
-1.64984
-1.82772
-5.13851
0.298511
-2.95382
-1.64164
-2.51715
-1.66908
-2.89244
-2.6195
-1.99888
-0.619056
-0.739069
-0.650461
-1.92344
-1.64017
-4.46812
-1.6587
-1.83331
-2.04363
-2.73952
-2.23834
-2.51552
-2.23941
0.220987
-2.18522
-2.3438
-5.52209
-0.75985
-2.69775
-0.381913
-0.809471
-0.276163
-2.09125
-0.714004
-2.73952
-2.20285
-2.19085
-2.20285
-6.18893
-2.29951
-2.38158
-2.48367
-2.60369
-0.752757
-0.729847
-0.320838
-5.60348
-0.399577
-0.296542
-7.22494
-2.14929
-1.30074
-1.62257
-5.36217
-0.0986629
-2.67523
-1.82608
-0.0519576
-4.94955
0.267088
-0.368844
-5.22792
0.306307
-0.731919
-3.14139
0.288796
-7.36683
-0.331554
-1.21557
-0.744573
-0.123719
-0.170592
-6.76562
-1.72629
-0.732606
-4.54323
-0.866867
-2.67
-2.35681
-4.49611
-3.44304
-0.135767
-0.580475
-1.58167
-7.59406
-0.694362
-0.948652
-5.02985
0.237384
-1.43969
-0.114085
-1.59935
0.0571319
-0.709752
-4.90167
-3.06864
-5.46044
-0.740252
-5.24874
-1.54049
-0.304699
-0.303346
-2.07624
-2.48978
-2.6069
-0.280921
-5.07099
-0.970746
-2.90118
-4.99973
-5.12635
-0.497261
-5.02211
-0.2544
-0.726385
-1.49386
-4.95402
0.276423
-0.718871
-2.45763
-2.66649
-3.04338
-3.83745
-1.04904
-4.38504
-2.83739
0.106712
-1.6273
-0.259657
-8.04352
-1.72044
-4.65893
0.240023
-6.06393
-2.83817
-4.96249
-4.74495
0.228056
-0.650798
-2.92707
-4.45592
-4.76133
-0.640333
-1.61986
-0.745257
-0.189597
-2.37234
0.288721
-0.410932
-5.94835
-2.81093
0.282133
-5.27496
-2.67796
-1.67312
-0.463925
-4.78823
-2.76478
-2.91264
-0.31338
0.0971552
-0.489805
-2.23852
-4.29624
0.255497
-2.68866
-0.740078
-4.98979
-4.77029
-2.55764
-0.120591
-1.33739
-0.179507
-1.34685
-1.62862
-4.80971
-0.467093
-0.233625
0.301478
-7.59036
-4.96894
-1.54288
-0.208518
-4.65604
-0.396786
-4.30823
-2.84949
-2.70689
0.255241
-4.42869
-4.36005
0.29164
0.176417
-4.62807
-2.2406
-2.14308
-4.70394
-4.84897
-7.05321
0.298392
-3.73523
-0.866751
-5.10758
-2.46081
-0.965176
-2.48085
0.00584805
-4.98275
-1.25097
-2.51226
-0.647969
-2.63488
-3.02691
-0.452817
-8.15829
-6.58464
-1.28079
-0.874845
-2.59087
0.251227
-1.96656
-2.63285
-2.94219
-2.5832
-1.17928
-2.53488
-1.7699
-1.59539
-3.12641
-1.5066
-1.94303
-0.474939
-2.41665
-0.807985
-0.515415
-5.37635
0.292835
-1.01974
-1.59313
-2.28314
-2.15422
-1.0475
-1.77152
-0.870849
-2.9695
-0.837624
-1.10373
-1.02509
-0.218226
-2.85294
0.181003
-4.31065
-2.72469
-2.68288
-2.65386
-0.678489
0.241416
-7.95685
-1.19097
-3.24737
-7.44592
-3.03587
0.279782
-0.604553
-1.38019
-1.42002
-0.185611
-0.39836
-0.913311
-7.37766
-0.932945
-7.83319
-0.0146526
-7.66226
-1.18656
-1.90167
0.230115
-7.86838
-1.37523
-0.0721668
-7.6166
-4.16428
-7.94678
-1.80081
-0.862325
0.260419
-0.809824
-1.06847
-7.83174
0.244039
0.297879
-4.57056
-2.50307
-6.1885
-0.712619
-5.02718
-0.829206
-1.26857
0.23713
-1.23393
-5.83118
-0.460743
-6.75982
-3.28564
-8.09851
-0.554563
-8.11521
-0.593302
-0.87768
0.30418
0.162851
-0.680904
-4.16115
-3.26372
-2.96723
0.291914
-2.86576
-0.494627
-2.05642
-1.11723
-4.2822
-0.302765
-4.86476
-5.10394
-2.33463
0.284875
-3.48941
-1.44418
-3.36044
0.193652
0.270926
-5.15936
-1.4229
-5.32152
-3.36683
-2.04351
-1.16315
-1.50154
-1.08225
-5.80439
-5.84793
-0.171654
0.214123
-1.29052
-3.3329
-1.21308
-3.08892
-4.9206
-0.976574
-4.83928
-2.95423
-0.973352
-0.487202
-1.56755
-5.27701
-6.43184
-5.91255
-2.99856
-3.04006
-0.52977
-3.07418
-0.348749
-2.04335
0.176007
0.0815706
-1.21249
0.227686
-0.898293
-1.45116
-2.93188
-4.77673
-0.5124
0.181951
0.284041
-0.155202
-1.24342
-5.04771
-3.56455
-1.38407
-3.5282
-3.22821
-5.42542
-1.81974
-4.81358
-0.122798
-4.91866
-4.93402
-0.0799538
-0.523476
-0.366262
-6.11071
-1.36529
-1.2677
-3.02945
-4.72956
-2.99046
-6.37853
-1.86424
0.273214
0.295763
-1.69664
-2.24898
-3.71071
-0.798597
0.274487
0.244448
-1.85797
-0.506751
0.305009
-0.633155
-2.15626
-2.76142
0.238892
-2.43803
0.250654
-1.31712
0.302474
0.280539
-2.0261
-0.207204
-1.69814
-0.90344
-0.993781
-5.30662
-1.66147
0.249926
-1.51237
-1.68327
-1.12611
-0.85694
-0.219129
-0.367285
-1.16979
-0.20591
-1.19849
-0.735268
-0.406998
-5.22202
-2.32949
0.256497
-0.575293
-0.510364
-1.72804
-1.82087
-5.61645
-2.68195
-0.587413
-0.849595
-3.08708
-1.94429
-0.0357198
-0.533491
-5.22011
-0.986448
-2.25456
-0.799923
-0.312517
-0.87398
-0.733292
-2.66141
-0.145897
-3.61005
-1.87132
0.111314
-5.71284
-0.0589034
-3.53464
-1.62226
0.193202
-0.513389
-2.71849
-2.60933
-2.25211
-0.211667
-0.728056
-2.42015
-0.822651
0.282583
-2.56276
-0.115185
-2.80047
-0.586731
-0.15615
-0.821993
-2.52234
-5.16019
-0.48934
-1.30742
-1.292
-2.27992
-0.332902
-0.0934425
-0.0763125
-0.00486565
-2.01073
-1.33683
-2.49966
-0.0563218
-0.606721
0.228219
-5.50663
0.0695262
-3.06437
0.0282762
-0.311107
-0.178509
-0.74294
-5.66707
-2.20783
-0.00402729
-0.403414
0.00827268
-2.37545
-2.10912
-1.16002
-0.367324
-2.74135
-3.11162
0.0373917
0.275154
-2.31727
-2.20252
-2.8346
-2.22873
-0.724887
-2.99346
-0.914761
-2.9502
-2.16614
-0.416011
-0.839431
-2.16588
-1.99841
-2.05213
0.237935
-5.25257
0.175722
-6.88159
-0.886921
-1.47289
0.277184
-1.54206
-1.92813
-0.0285004
-0.842616
-3.01791
-1.18054
-0.574309
-6.04447
-2.0541
-3.62214
-0.380152
-6.06934
-1.55904
-2.55297
-1.82267
-5.07706
0.222923
-1.05464
-0.159603
-1.36567
-4.6726
0.266484
-2.1114
-1.03345
-2.97008
-0.882888
-3.85225
-1.7561
-3.11776
-2.87982
0.229317
-1.04495
-1.2369
-1.93271
-3.02489
-6.64573
-1.65248
0.210564
-1.01615
-1.01469
-7.03002
-0.28852
-0.453448
-5.07239
-0.912556
-5.11511
-0.593391
-0.761008
-0.22604
-6.52007
0.280017
-0.563327
-0.674075
-0.377627
0.27398
-2.56438
-0.751519
-1.94273
-4.7941
-0.533988
-1.17465
-1.89127
-0.0517839
-0.842872
-0.94986
-0.202297
0.28032
-1.41012
-0.217087
-1.88205
-0.10372
-0.853187
-1.80576
0.0657925
-0.795125
-1.65346
0.298375
-0.556657
0.15999
-0.916595
0.00211384
-1.86489
-0.182921
-0.632863
-7.53848
-2.43449
-3.88628
-6.75348
-3.34135
-0.305731
-0.777969
-4.54617
-0.586384
-0.924254
0.301498
-0.808435
-0.451735
-0.980503
-1.57292
-7.39421
0.254928
-0.398967
-0.925051
-0.453154
0.153374
-3.73517
-1.95173
-0.639487
-0.55684
-3.45652
-3.73589
-1.39083
-1.09247
-1.7724
-0.251688
-4.14011
-0.580106
-0.34768
-2.69188
-0.446293
-0.920919
-0.50021
-0.280081
-0.400029
0.295602
-0.261539
-6.39647
-0.794351
-0.954315
-0.978062
-4.21805
-0.824498
-3.35437
-0.0506374
-5.22432
-0.417465
-7.39341
0.063864
-0.150786
-0.975204
-0.0673742
-2.9383
-7.18528
-0.689295
-0.6797
-0.983338
-0.275461
-2.74131
-0.666254
0.274931
-7.64561
-7.26372
-0.224599
-7.26429
-6.42016
-0.256924
-0.31894
0.301342
-0.0947323
-0.865687
-0.72944
-7.48514
-7.87831
-0.373878
-1.26628
-6.40548
-0.494814
-4.20685
0.266114
-8.09376
-7.58832
-0.803127
0.273465
-0.615728
0.293848
-0.623838
0.237495
-2.13819
-7.78586
-7.41525
-0.680414
-2.54403
-0.188175
-1.42242
-0.590372
-1.85205
-3.0064
-2.87779
-7.69867
-2.75702
-6.12767
-0.469659
-2.96976
-0.746704
-0.350926
-7.1105
-3.93755
-1.96703
-0.589446
-0.632487
-0.713046
-3.78324
-7.97031
-0.115299
-0.535198
-7.7274
-2.6536
-7.78099
-1.87969
-1.62702
-0.519873
-5.65222
-2.85561
0.194376
-0.247863
-0.093412
-5.78484
-4.74731
-5.50586
-2.09136
-2.37551
-1.95976
-0.29075
-5.00944
-0.557853
-5.93631
0.244944
-7.05358
-5.65333
-6.28703
-4.35701
-2.95267
-0.396792
-7.00232
0.297078
-0.199695
-1.05962
-0.424035
-0.0177006
-2.06671
-2.46796
-7.99991
-0.509929
-0.589415
-0.265154
-7.93497
-0.575873
-0.705152
-3.03709
-1.36723
-0.990957
-6.9047
-2.04326
-0.434477
-2.94936
-7.8072
-0.388333
-0.335651
-0.197645
-2.18724
-0.607283
-1.07719
-0.544089
-0.150768
-4.55551
-3.6711
-6.45924
-0.187254
0.27972
0.284962
-0.783792
-0.576301
-2.76398
-0.61507
-2.04056
-4.5961
-2.87386
-5.7112
-1.86527
-3.2288
-1.81111
0.293179
-3.74575
-3.34773
-0.0835336
-2.1298
-0.420046
-0.120197
-0.680419
-1.70512
-0.566386
-2.31773
-2.73886
-1.8746
0.29505
-3.14473
-0.133887
-0.610142
-3.87386
-0.165113
-2.46617
-6.26361
-3.66356
-3.64724
0.0289729
-2.91265
-1.82929
-1.86852
-0.60101
-0.226846
0.222492
0.286781
-1.68674
-4.55052
0.303946
-4.73276
-4.33877
-0.317173
-2.0875
-0.444317
-4.49977
-0.557447
-1.74655
-0.0803095
-0.093943
-0.701538
-1.77165
-2.87746
-3.63023
-1.9525
-2.06731
0.228033
-7.83238
-0.546832
-4.33061
0.28112
-1.75045
-1.96093
-2.34465
-0.394245
-6.7198
-0.682504
-2.44516
-0.707073
-0.189927
0.167372
-0.652862
-6.1255
-2.70645
-0.452874
-0.839206
-1.51456
-1.95315
0.272309
-0.506992
-4.93806
-6.27903
-3.92154
0.268412
-5.52942
-3.44768
-0.410479
-1.35692
0.277472
-0.685936
-7.97794
-7.91632
-8.00195
-7.51274
-6.15985
-4.65672
-1.69556
-0.745781
-6.70526
-2.78076
-3.89748
-0.810198
-0.235449
-2.25384
-2.90787
-1.54226
-0.762123
-6.33296
-0.216508
-6.60968
-3.88114
-2.35878
0.212453
-0.250435
-3.25665
-3.99168
-4.03675
0.173136
-2.84445
-2.24506
-0.0756746
0.292017
0.286551
-2.70299
-0.80435
-4.1657
-2.43528
-2.33618
-6.34652
0.229685
-0.861959
-2.74633
-3.56604
-0.872118
-2.25614
-0.165043
-2.60859
-4.82331
0.255156
-6.71872
-2.83224
-4.87774
-4.05723
-0.161228
-4.7398
-3.53094
-2.50679
-4.15009
0.297197
-0.308983
-5.93957
-4.18315
-0.835861
-0.238279
-3.46618
-5.92192
-1.37392
-5.6073
-1.97297
-2.15165
0.104452
-4.30217
-1.31293
-1.89727
-1.50412
-1.3898
-2.30782
-3.84969
-0.949931
-4.28886
-1.92878
-1.45846
-4.56924
0.281899
-0.53456
0.0187431
-0.508852
-4.59966
-6.0408
-6.62901
-5.48326
-0.259639
-0.79632
-5.01599
-3.97323
-0.330409
-0.867475
-0.553411
-0.189719
0.283169
-4.44276
-6.82254
-0.242517
-0.483415
0.237605
0.218113
-1.33121
-5.50559
-3.24009
-4.38165
-0.792157
-5.94854
-4.05706
-2.8315
-1.08668
-5.5367
-5.17656
-2.73382
-2.02245
-0.332304
-4.42143
-0.448612
-3.37299
-5.07092
-4.56157
-0.370256
-5.12656
-6.12707
-5.49274
-0.326717
-0.141172
0.307242
-0.92693
-4.35483
-4.57861
-7.19356
-0.394856
-0.396202
-5.68198
0.304059
-5.6062
-4.87125
0.310538
-0.458783
-5.52849
-0.401505
-3.34069
-1.73869
0.274679
0.307904
-1.02125
-7.45347
-2.37089
-3.86989
-2.65459
-4.73862
-4.48363
0.249426
-4.68993
-7.20056
-3.4685
-0.34172
-2.5434
-2.07576
0.303433
0.305931
-0.582051
-5.97826
-0.370362
-0.990022
-1.0926
-5.01636
-6.81038
0.306785
-3.45226
-1.85248
-2.5981
-7.40122
-2.75863
-0.690216
-6.87191
-3.93327
0.134188
-0.26603
-5.71018
0.305363
-2.86578
-5.64431
-0.307776
-5.13034
-3.98452
-6.25044
-5.89484
-0.056274
-0.99627
-5.20307
-2.66749
-2.33375
-5.84478
-0.198905
-0.234828
-5.60692
-0.928442
-2.57252
-6.23494
-5.76014
-6.10598
-4.29473
-6.48922
-0.320292
-6.6256
-2.96777
-5.80619
-5.85888
-5.99455
-6.00655
-2.43014
-4.83728
-2.22018
0.302643
-0.267912
0.293158
-0.359542
-6.08575
-6.08368
-5.87657
-5.84107
-2.55083
-2.18293
-3.14628
-2.6415
-4.03703
-6.04132
-6.34071
-6.29237
-6.42117
-5.92383
-6.13538
-6.42854
0.262404
-6.31609
-2.35439
-6.46061
-5.80432
-6.18804
-0.931568
-0.412219
-5.02777
-2.42111
-5.17109
-5.22999
-5.50109
-5.3026
-5.17652
-2.41689
-6.26992
-4.69598
-3.80042
-2.76554
0.309225
0.306665
-0.960108
-6.36192
-6.47046
-0.496695
-6.14556
-5.32553
-7.95205
-5.86318
-2.15303
-5.28022
-1.04686
-2.38651
-8.01038
-2.50308
-6.29369
-8.04416
-7.55477
-1.7624
-7.83704
-2.57402
-3.50952
-2.8323
-2.52428
-2.31479
-3.77704
-5.05893
-2.50194
-5.98221
-2.5034
-1.4507
-3.24631
-1.6019
-0.706334
-2.8516
-3.21625
-1.13459
-1.11772
-3.99479
-5.0496
-2.31555
-2.76622
-4.90852
-2.64155
-4.41341
-3.59154
-3.16027
-1.18822
-5.64287
-2.29457
-5.84365
-1.04544
-5.05859
-2.43827
-1.18968
-1.51376
-1.26146
0.299064
0.304422
-2.6489
-2.73234
-3.23342
-1.53364
-3.59639
-0.39593
-6.39744
-3.89949
0.22884
-1.19493
0.119307
0.3029
-1.12349
-2.3551
-1.0576
-3.05762
-1.56786
-0.378466
-0.965235
-3.0439
-0.379755
-3.49992
-3.09123
-0.87215
-1.07081
0.298792
-0.85604
-2.63572
-0.934455
-0.843575
-2.38879
-3.70318
-3.96837
0.307218
-1.35781
0.255102
0.305748
-3.14088
-6.3481
-1.36199
-4.15595
-1.05222
-7.07621
-2.20335
-1.1006
-1.87302
0.207836
-5.12787
-1.05619
-0.73492
-1.44351
-0.68883
-1.2137
-3.75754
0.307479
-1.20173
-0.732482
-0.359963
0.306309
-0.887435
-0.570126
-2.33449
-6.22812
-6.30358
-4.20585
-3.80299
-1.07739
-0.315717
-0.259947
-0.865549
-5.33158
-0.978551
0.170004
-3.40942
0.306788
-6.18097
-3.50985
-1.1489
-5.32978
-6.6705
-1.11048
-1.68166
-1.16276
0.300662
0.156212
-0.711366
-1.69186
-0.733851
-5.24098
0.149423
-0.784756
-3.20479
-0.747864
-1.95992
-4.01863
-1.97603
-0.746976
-0.39344
-3.41992
-6.12571
-1.77438
-0.388667
-5.49088
-2.06429
-0.400557
-2.02522
-5.08483
-2.11582
-1.20679
-0.781327
-5.21966
-0.483603
-0.641482
-0.517031
0.306742
-5.75975
-0.786689
-0.867025
-1.25193
-0.330996
-0.444913
0.29448
-1.78997
0.304054
-0.45396
-0.588946
-0.501976
-1.91709
-1.03117
-1.6349
-0.700762
-0.414783
-2.14626
-5.69391
-1.72063
-0.502946
0.287678
-0.274003
-3.2118
0.294682
-0.638282
-0.122741
-2.79067
-1.61258
-3.508
-0.49888
-1.68377
-5.10161
0.30053
-0.60621
0.280901
0.303381
-6.85083
-0.292171
-4.16302
-0.547096
0.285287
-2.89132
0.302517
-1.28052
-0.038668
-0.177528
0.292006
0.280966
-4.10764
-0.744812
-0.64772
-0.729323
-3.12172
-3.17557
-0.78553
0.214166
-0.67407
-0.343189
0.285946
-0.505913
-1.09946
-6.39062
-0.614335
-0.489485
-0.829486
-0.432433
-0.00704218
-0.67061
0.250725
-0.252503
-0.268273
-0.90322
-0.833536
0.306586
-3.14894
-1.67687
-1.10186
-0.607075
-0.467761
0.302219
-4.05559
-2.62452
-0.46087
-0.308541
-0.414347
-0.608721
-1.25015
-1.32566
-7.02582
0.291932
0.30509
-6.65062
-0.827646
-7.18923
-2.02168
-0.509233
0.307087
0.291009
-0.650702
-0.691935
0.289748
-5.56583
-6.54901
-0.497903
-0.518787
-6.95496
0.261337
-1.1327
-0.94141
-0.731583
-0.526601
-4.99248
-0.592247
-3.02837
-4.07794
-0.442012
-7.3465
0.308921
-1.95961
-5.64752
-3.06792
-5.32092
-0.727713
-1.99565
-0.928274
-0.469743
-3.40738
-0.897217
-2.10832
-2.37457
0.0758754
0.282904
-4.01713
-6.48797
-7.20212
-3.9367
-0.830468
-0.793651
-0.838318
-0.49066
-2.28318
-2.69228
-2.35291
-1.8414
-2.52551
-0.890666
-0.583263
-4.22962
-0.990247
-2.45254
-0.907399
-6.96051
-0.670219
-1.30849
-7.81891
-2.48135
-0.65402
-1.11578
-7.62421
-0.829117
-6.89644
-0.991518
-4.24995
-0.927493
-2.64064
-1.2117
-1.36782
-2.06334
0.29276
-1.16887
-1.58994
0.216911
-1.3824
-7.74434
0.302766
0.293004
-1.0573
-0.431576
-1.79559
-0.739008
-3.94831
0.247633
0.232627
-0.54449
0.302399
-6.31448
0.309067
-3.14394
-1.12173
-2.21606
-1.59358
-2.93537
-7.92273
0.288804
-2.48831
-0.978609
-0.919479
-0.861753
-1.10856
-5.18534
-0.798862
-0.947946
-1.63289
-1.83482
-1.17912
-0.604029
-3.50549
-4.10213
-4.25119
-1.35694
-4.27273
-1.5075
-1.49387
-1.17882
-1.09827
-3.29472
0.290687
-1.10761
-1.76107
-1.12923
-1.72759
-0.838665
-7.70413
-0.370526
-1.16733
-0.53868
-1.77703
-7.81663
-0.449991
0.308567
0.0591456
-2.23873
-1.40253
0.295775
-2.27242
-0.880623
0.171256
0.132261
-0.878827
-0.213651
-0.959951
-2.03438
-0.902957
-3.41474
0.108792
-4.32642
-2.69261
0.163209
-4.35676
-6.82705
-4.16343
-5.75185
-1.08728
0.182189
-1.01413
-0.263352
0.132506
-1.27094
-1.28793
0.192983
0.159842
-2.99403
0.0490995
0.023887
0.150125
-5.81101
0.183142
-0.0273711
0.127078