<VTKFile type="UnstructuredGrid" version="0.1" byte_order="LittleEndian">
  <UnstructuredGrid>
    <Piece NumberOfPoints="11970" NumberOfCells="22992">
      <Points>
        <DataArray type = "Float64" NumberOfComponents="3" format="ascii">
3.5 2.00105 0.0 
3.5 1.99895 0.0 
0 0 0.0 
12 0 0.0 
0 4 0.0 
12 4 0.0 
3.5 1.99921 0.0 
3.5 1.99947 0.0 
3.5 1.99974 0.0 
3.5 2 0.0 
3.5 2.00026 0.0 
3.5 2.00053 0.0 
3.5 2.00079 0.0 
3.49751 2.0013 0.0 
3.49503 2.00155 0.0 
3.49254 2.0018 0.0 
3.49005 2.00205 0.0 
3.48757 2.0023 0.0 
3.48508 2.00255 0.0 
3.48259 2.00279 0.0 
3.48011 2.00304 0.0 
3.47762 2.00329 0.0 
3.47513 2.00354 0.0 
3.47264 2.00378 0.0 
3.47016 2.00403 0.0 
3.46767 2.00427 0.0 
3.46518 2.00452 0.0 
3.4627 2.00476 0.0 
3.46021 2.00501 0.0 
3.45772 2.00525 0.0 
3.45523 2.0055 0.0 
3.45275 2.00574 0.0 
3.45026 2.00598 0.0 
3.44777 2.00623 0.0 
3.44528 2.00647 0.0 
3.4428 2.00671 0.0 
3.44031 2.00695 0.0 
3.43782 2.00719 0.0 
3.43533 2.00744 0.0 
3.43285 2.00768 0.0 
3.43036 2.00792 0.0 
3.42787 2.00816 0.0 
3.42538 2.0084 0.0 
3.4229 2.00864 0.0 
3.42041 2.00887 0.0 
3.41792 2.00911 0.0 
3.41543 2.00935 0.0 
3.41294 2.00959 0.0 
3.41046 2.00983 0.0 
3.40797 2.01006 0.0 
3.40548 2.0103 0.0 
3.40299 2.01054 0.0 
3.4005 2.01077 0.0 
3.39802 2.01101 0.0 
3.39553 2.01124 0.0 
3.39304 2.01148 0.0 
3.39055 2.01171 0.0 
3.38806 2.01195 0.0 
3.38557 2.01218 0.0 
3.38309 2.01241 0.0 
3.3806 2.01265 0.0 
3.37811 2.01288 0.0 
3.37562 2.01311 0.0 
3.37313 2.01335 0.0 
3.37064 2.01358 0.0 
3.36816 2.01381 0.0 
3.36567 2.01404 0.0 
3.36318 2.01427 0.0 
3.36069 2.0145 0.0 
3.3582 2.01473 0.0 
3.35571 2.01496 0.0 
3.35322 2.01519 0.0 
3.35073 2.01542 0.0 
3.34825 2.01565 0.0 
3.34576 2.01587 0.0 
3.34327 2.0161 0.0 
3.34078 2.01633 0.0 
3.33829 2.01656 0.0 
3.3358 2.01678 0.0 
3.33331 2.01701 0.0 
3.33082 2.01723 0.0 
3.32833 2.01746 0.0 
3.32584 2.01768 0.0 
3.32336 2.01791 0.0 
3.32087 2.01813 0.0 
3.31838 2.01836 0.0 
3.31589 2.01858 0.0 
3.3134 2.0188 0.0 
3.31091 2.01903 0.0 
3.30842 2.01925 0.0 
3.30593 2.01947 0.0 
3.30344 2.01969 0.0 
3.30095 2.01992 0.0 
3.29846 2.02014 0.0 
3.29597 2.02036 0.0 
3.29348 2.02058 0.0 
3.29099 2.0208 0.0 
3.2885 2.02102 0.0 
3.28601 2.02124 0.0 
3.28352 2.02146 0.0 
3.28104 2.02167 0.0 
3.27855 2.02189 0.0 
3.27606 2.02211 0.0 
3.27357 2.02233 0.0 
3.27108 2.02254 0.0 
3.26859 2.02276 0.0 
3.2661 2.02298 0.0 
3.26361 2.02319 0.0 
3.26112 2.02341 0.0 
3.25863 2.02362 0.0 
3.25614 2.02384 0.0 
3.25365 2.02405 0.0 
3.25116 2.02427 0.0 
3.24867 2.02448 0.0 
3.24618 2.0247 0.0 
3.24369 2.02491 0.0 
3.2412 2.02512 0.0 
3.23871 2.02533 0.0 
3.23622 2.02555 0.0 
3.23373 2.02576 0.0 
3.23123 2.02597 0.0 
3.22874 2.02618 0.0 
3.22625 2.02639 0.0 
3.22376 2.0266 0.0 
3.22127 2.02681 0.0 
3.21878 2.02702 0.0 
3.21629 2.02723 0.0 
3.2138 2.02744 0.0 
3.21131 2.02765 0.0 
3.20882 2.02785 0.0 
3.20633 2.02806 0.0 
3.20384 2.02827 0.0 
3.20135 2.02848 0.0 
3.19886 2.02868 0.0 
3.19637 2.02889 0.0 
3.19388 2.0291 0.0 
3.19139 2.0293 0.0 
3.18889 2.02951 0.0 
3.1864 2.02971 0.0 
3.18391 2.02992 0.0 
3.18142 2.03012 0.0 
3.17893 2.03032 0.0 
3.17644 2.03053 0.0 
3.17395 2.03073 0.0 
3.17146 2.03093 0.0 
3.16897 2.03113 0.0 
3.16648 2.03134 0.0 
3.16398 2.03154 0.0 
3.16149 2.03174 0.0 
3.159 2.03194 0.0 
3.15651 2.03214 0.0 
3.15402 2.03234 0.0 
3.15153 2.03254 0.0 
3.14904 2.03274 0.0 
3.14655 2.03294 0.0 
3.14405 2.03313 0.0 
3.14156 2.03333 0.0 
3.13907 2.03353 0.0 
3.13658 2.03372 0.0 
3.13409 2.03392 0.0 
3.1316 2.03411 0.0 
3.1291 2.0343 0.0 
3.12661 2.03449 0.0 
3.12412 2.03468 0.0 
3.12163 2.03487 0.0 
3.11914 2.03506 0.0 
3.11664 2.03525 0.0 
3.11415 2.03543 0.0 
3.11166 2.03562 0.0 
3.10917 2.0358 0.0 
3.10667 2.03599 0.0 
3.10418 2.03617 0.0 
3.10169 2.03635 0.0 
3.0992 2.03653 0.0 
3.0967 2.03672 0.0 
3.09421 2.03689 0.0 
3.09172 2.03707 0.0 
3.08922 2.03725 0.0 
3.08673 2.03743 0.0 
3.08424 2.0376 0.0 
3.08175 2.03778 0.0 
3.07925 2.03795 0.0 
3.07676 2.03812 0.0 
3.07427 2.0383 0.0 
3.07177 2.03847 0.0 
3.06928 2.03864 0.0 
3.06679 2.03881 0.0 
3.06429 2.03898 0.0 
3.0618 2.03914 0.0 
3.0593 2.03931 0.0 
3.05681 2.03947 0.0 
3.05432 2.03964 0.0 
3.05182 2.0398 0.0 
3.04933 2.03997 0.0 
3.04684 2.04013 0.0 
3.04434 2.04029 0.0 
3.04185 2.04045 0.0 
3.03935 2.04061 0.0 
3.03686 2.04077 0.0 
3.03436 2.04092 0.0 
3.03187 2.04108 0.0 
3.02938 2.04124 0.0 
3.02688 2.04139 0.0 
3.02439 2.04155 0.0 
3.02189 2.0417 0.0 
3.0194 2.04185 0.0 
3.0169 2.042 0.0 
3.01441 2.04215 0.0 
3.01191 2.0423 0.0 
3.00942 2.04245 0.0 
3.00692 2.0426 0.0 
3.00443 2.04274 0.0 
3.00193 2.04289 0.0 
2.99944 2.04303 0.0 
2.99694 2.04318 0.0 
2.99445 2.04332 0.0 
2.99195 2.04346 0.0 
2.98946 2.0436 0.0 
2.98696 2.04374 0.0 
2.98447 2.04388 0.0 
2.98197 2.04402 0.0 
2.97948 2.04416 0.0 
2.97698 2.04429 0.0 
2.97448 2.04443 0.0 
2.97199 2.04456 0.0 
2.96949 2.0447 0.0 
2.967 2.04483 0.0 
2.9645 2.04496 0.0 
2.96201 2.04509 0.0 
2.95951 2.04522 0.0 
2.95701 2.04535 0.0 
2.95452 2.04548 0.0 
2.95202 2.04561 0.0 
2.94953 2.04573 0.0 
2.94703 2.04586 0.0 
2.94453 2.04598 0.0 
2.94204 2.04611 0.0 
2.93954 2.04623 0.0 
2.93704 2.04635 0.0 
2.93455 2.04647 0.0 
2.93205 2.04659 0.0 
2.92956 2.04671 0.0 
2.92706 2.04683 0.0 
2.92456 2.04695 0.0 
2.92207 2.04706 0.0 
2.91957 2.04718 0.0 
2.91707 2.04729 0.0 
2.91458 2.04741 0.0 
2.91208 2.04752 0.0 
2.90958 2.04763 0.0 
2.90709 2.04774 0.0 
2.90459 2.04785 0.0 
2.90209 2.04796 0.0 
2.8996 2.04807 0.0 
2.8971 2.04817 0.0 
2.8946 2.04828 0.0 
2.8921 2.04838 0.0 
2.88961 2.04847 0.0 
2.88711 2.04857 0.0 
2.88461 2.04866 0.0 
2.88211 2.04875 0.0 
2.87962 2.04883 0.0 
2.87712 2.04891 0.0 
2.87462 2.04899 0.0 
2.87212 2.04907 0.0 
2.86962 2.04914 0.0 
2.86713 2.04921 0.0 
2.86463 2.04928 0.0 
2.86213 2.04934 0.0 
2.85963 2.04941 0.0 
2.85713 2.04946 0.0 
2.85463 2.04952 0.0 
2.85213 2.04957 0.0 
2.84964 2.04962 0.0 
2.84714 2.04967 0.0 
2.84464 2.04971 0.0 
2.84214 2.04975 0.0 
2.83964 2.04979 0.0 
2.83714 2.04983 0.0 
2.83464 2.04986 0.0 
2.83214 2.04989 0.0 
2.82964 2.04991 0.0 
2.82714 2.04994 0.0 
2.82464 2.04996 0.0 
2.82215 2.04997 0.0 
2.81965 2.04999 0.0 
2.81715 2.05 0.0 
2.81465 2.05001 0.0 
2.81215 2.05001 0.0 
2.80965 2.05002 0.0 
2.80715 2.05002 0.0 
2.80465 2.05001 0.0 
2.80215 2.05001 0.0 
2.79965 2.05 0.0 
2.79715 2.04999 0.0 
2.79465 2.04997 0.0 
2.79215 2.04995 0.0 
2.78966 2.04993 0.0 
2.78716 2.04991 0.0 
2.78466 2.04988 0.0 
2.78216 2.04985 0.0 
2.77966 2.04982 0.0 
2.77716 2.04979 0.0 
2.77466 2.04975 0.0 
2.77216 2.04971 0.0 
2.76966 2.04966 0.0 
2.76716 2.04962 0.0 
2.76467 2.04957 0.0 
2.76217 2.04951 0.0 
2.75967 2.04946 0.0 
2.75717 2.0494 0.0 
2.75467 2.04934 0.0 
2.75217 2.04927 0.0 
2.74967 2.0492 0.0 
2.74718 2.04913 0.0 
2.74468 2.04906 0.0 
2.74218 2.04898 0.0 
2.73968 2.04891 0.0 
2.73718 2.04882 0.0 
2.73469 2.04874 0.0 
2.73219 2.04865 0.0 
2.72969 2.04856 0.0 
2.72719 2.04847 0.0 
2.7247 2.04837 0.0 
2.7222 2.04827 0.0 
2.7197 2.04817 0.0 
2.7172 2.04806 0.0 
2.71471 2.04796 0.0 
2.71221 2.04785 0.0 
2.70971 2.04773 0.0 
2.70722 2.04761 0.0 
2.70472 2.0475 0.0 
2.70222 2.04737 0.0 
2.69973 2.04725 0.0 
2.69723 2.04713 0.0 
2.69474 2.047 0.0 
2.69224 2.04687 0.0 
2.68974 2.04673 0.0 
2.68725 2.0466 0.0 
2.68475 2.04646 0.0 
2.68226 2.04632 0.0 
2.67976 2.04617 0.0 
2.67727 2.04603 0.0 
2.67477 2.04588 0.0 
2.67228 2.04573 0.0 
2.66978 2.04558 0.0 
2.66729 2.04542 0.0 
2.6648 2.04526 0.0 
2.6623 2.0451 0.0 
2.65981 2.04494 0.0 
2.65731 2.04478 0.0 
2.65482 2.04461 0.0 
2.65233 2.04444 0.0 
2.64983 2.04426 0.0 
2.64734 2.04409 0.0 
2.64485 2.04391 0.0 
2.64235 2.04373 0.0 
2.63986 2.04355 0.0 
2.63737 2.04336 0.0 
2.63488 2.04317 0.0 
2.63239 2.04298 0.0 
2.62989 2.04279 0.0 
2.6274 2.0426 0.0 
2.62491 2.0424 0.0 
2.62242 2.0422 0.0 
2.61993 2.04199 0.0 
2.61744 2.04179 0.0 
2.61495 2.04158 0.0 
2.61246 2.04137 0.0 
2.60997 2.04116 0.0 
2.60748 2.04094 0.0 
2.60499 2.04072 0.0 
2.6025 2.0405 0.0 
2.60001 2.04028 0.0 
2.59752 2.04005 0.0 
2.59503 2.03982 0.0 
2.59254 2.03959 0.0 
2.59005 2.03936 0.0 
2.58757 2.03912 0.0 
2.58508 2.03888 0.0 
2.58259 2.03864 0.0 
2.5801 2.03839 0.0 
2.57762 2.03815 0.0 
2.57513 2.0379 0.0 
2.57264 2.03764 0.0 
2.57016 2.03735 0.0 
2.56768 2.03702 0.0 
2.56522 2.03662 0.0 
2.56276 2.03616 0.0 
2.56031 2.03565 0.0 
2.55788 2.03508 0.0 
2.55546 2.03446 0.0 
2.55305 2.03379 0.0 
2.55066 2.03307 0.0 
2.54828 2.0323 0.0 
2.54592 2.03148 0.0 
2.54357 2.03062 0.0 
2.54124 2.02971 0.0 
2.53893 2.02876 0.0 
2.53664 2.02777 0.0 
2.53436 2.02674 0.0 
2.5321 2.02567 0.0 
2.52986 2.02456 0.0 
2.52764 2.02342 0.0 
2.52544 2.02224 0.0 
2.52325 2.02103 0.0 
2.52108 2.01978 0.0 
2.51893 2.01851 0.0 
2.5168 2.0172 0.0 
2.51469 2.01587 0.0 
2.51259 2.01451 0.0 
2.51052 2.01312 0.0 
2.50845 2.0117 0.0 
2.50644 2.01022 0.0 
2.50456 2.00858 0.0 
2.50283 2.00678 0.0 
2.50139 2.00474 0.0 
2.50037 2.00246 0.0 
2.5 2 0.0 
2.50037 1.99754 0.0 
2.50139 1.99526 0.0 
2.50283 1.99322 0.0 
2.50456 1.99142 0.0 
2.50644 1.98978 0.0 
2.50845 1.9883 0.0 
2.51052 1.98688 0.0 
2.51259 1.98549 0.0 
2.51469 1.98413 0.0 
2.5168 1.9828 0.0 
2.51893 1.98149 0.0 
2.52108 1.98022 0.0 
2.52325 1.97897 0.0 
2.52544 1.97776 0.0 
2.52764 1.97658 0.0 
2.52986 1.97544 0.0 
2.5321 1.97433 0.0 
2.53436 1.97326 0.0 
2.53664 1.97223 0.0 
2.53893 1.97124 0.0 
2.54124 1.97029 0.0 
2.54357 1.96938 0.0 
2.54592 1.96852 0.0 
2.54828 1.9677 0.0 
2.55066 1.96693 0.0 
2.55305 1.96621 0.0 
2.55546 1.96554 0.0 
2.55788 1.96492 0.0 
2.56031 1.96435 0.0 
2.56276 1.96384 0.0 
2.56522 1.96338 0.0 
2.56768 1.96298 0.0 
2.57016 1.96265 0.0 
2.57264 1.96236 0.0 
2.57513 1.9621 0.0 
2.57762 1.96185 0.0 
2.5801 1.96161 0.0 
2.58259 1.96136 0.0 
2.58508 1.96112 0.0 
2.58757 1.96088 0.0 
2.59005 1.96064 0.0 
2.59254 1.96041 0.0 
2.59503 1.96018 0.0 
2.59752 1.95995 0.0 
2.60001 1.95972 0.0 
2.6025 1.9595 0.0 
2.60499 1.95928 0.0 
2.60748 1.95906 0.0 
2.60997 1.95884 0.0 
2.61246 1.95863 0.0 
2.61495 1.95842 0.0 
2.61744 1.95821 0.0 
2.61993 1.95801 0.0 
2.62242 1.9578 0.0 
2.62491 1.9576 0.0 
[...]
<PointData>
  <DataArray type = "Float64" Name="BLMLevelSetLayer1" format="ascii">
0.337538
0.337538
-2.86215
-8.39435
-2.86215
-8.39435
0.337538
0.337538
0.337538
0.337538
0.337538
0.337538
0.337538
0.337538
0.337538
0.337538
0.337538
0.337538
0.337538
0.337538
0.337538
0.337538
0.337538
0.337538
0.337538
0.337538
0.337538
0.337538
0.337538
0.337538
0.337538
0.337538
0.337538
0.337538
0.337538
0.337538
0.337538
0.337538
0.337538
0.337538
0.337538
0.337538
0.337538
0.337538
0.337538
0.337538
0.337538
0.337538
0.337538
0.337538
0.337538
0.337538
0.337538
0.337538
0.337538
0.337538
0.337538
0.337538
0.337538
0.337538
0.337538
0.337538
0.337538
0.337538
0.337538
0.337538
0.337538
0.337538
0.337538
0.337538
0.337538
0.337538
0.337538
0.337538
0.337538
0.337538
0.337538
0.337538
0.337538
0.337538
0.337538
0.337538
0.337538
0.337538
0.337538
0.337538
0.337538
0.337538
0.337538
0.337538
0.337538
0.337538
0.337538
0.337538
0.337538
0.337538
0.337538
0.337538
0.337538
0.337538
0.337538
0.337538
0.337538
0.337538
0.337538
0.337538
0.337538
0.337538
0.337538
0.337538
0.337538
0.337538
0.337538
0.337538
0.337538
0.337538
0.337538
0.337538
0.337538
0.337538
0.337538
0.337538
0.337538
0.337538
0.337538
0.337538
0.337538
0.337538
0.337538
0.337538
0.337538
0.337538
0.337538
0.337538
0.337538
0.337538
0.337538
0.337538
0.337538
0.337538
0.337538
0.337538
0.337538
0.337538
0.337538
0.337538
0.337538
0.337538
0.337538
0.337538
0.337538
0.337538
0.337538
0.337537
0.337537
0.337537
0.337538
0.337537
0.337537
0.337537
0.337538
0.337537
0.337537
0.337537
0.337538
0.337537
0.337537
0.337537
0.337538
0.337537
0.337537
0.337537
0.337538
0.337537
0.337537
0.337537
0.337538
0.337537
0.337537
0.337537
0.337538
0.337537
0.337537
0.337537
0.337538
0.337537
0.337537
0.337537
0.337538
0.337537
0.337537
0.337537
0.337538
0.337537
0.337537
0.337537
0.337538
0.337537
0.337537
0.337537
0.337538
0.337537
0.337537
0.337537
0.337538
0.337537
0.337537
0.337537
0.337538
0.337537
0.337537
0.337537
0.337538
0.337537
0.337537
0.337537
0.337538
0.337537
0.337537
0.337537
0.337538
0.337537
0.337537
0.337537
0.337538
0.337537
0.337537
0.337537
0.337538
0.337537
0.337537
0.337537
0.337538
0.337537
0.337537
0.337537
0.337538
0.337537
0.337537
0.337537
0.337538
0.337537
0.337537
0.337537
0.337538
0.337537
0.337537
0.337537
0.337538
0.337537
0.337537
0.337537
0.337538
0.337534
0.337533
0.337534
0.337538
0.337534
0.337532
0.337534
0.337538
0.337534
0.337532
0.337534
0.337538
0.337534
0.337532
0.337534
0.337538
0.337534
0.337533
0.337534
0.337538
0.337534
0.337532
0.337534
0.337538
0.337534
0.337533
0.337534
0.337538
0.337534
0.337533
0.337534
0.337538
0.337534
0.337533
0.337534
0.337538
0.337534
0.337533
0.337534
0.337538
0.337534
0.337533
0.337534
0.337538
0.337534
0.337533
0.337534
0.337538
0.337534
0.337533
0.337534
0.337538
0.337534
0.337533
0.337534
0.337538
0.337534
0.337533
0.337534
0.337538
0.337534
0.337533
0.337534
0.337538
0.337534
0.337533
0.337534
0.337538
0.337534
0.337533
0.337534
0.337538
0.337534
0.337533
0.337534
0.337538
0.337535
0.337533
0.337535
0.337538
0.337535
0.337534
0.337535
0.337538
0.337535
0.337534
0.337535
0.337538
0.337535
0.337534
0.337535
0.337538
0.337535
0.337533
0.337535
0.337538
0.337535
0.337533
0.337535
0.337538
0.337535
0.337533
0.337535
0.337538
0.337535
0.337533
0.337535
0.337538
0.337535
0.337533
0.337535
0.337538
0.337535
0.337533
0.337535
0.337538
0.337534
0.337533
0.337534
0.337538
0.337534
0.337533
0.337534
0.337538
0.337534
0.337533
0.337534
0.337538
0.337534
0.337533
0.337528
0.337538
0.337456
0.337422
0.337451
0.337538
0.337456
0.33743
0.337457
0.337538
0.337463
0.337439
0.337464
0.337538
0.33747
0.337448
0.337472
0.337538
0.337477
0.337458
0.337479
0.337538
0.337483
0.337466
0.337485
0.337538
0.337489
0.337469
0.337492
0.337538
0.337184
0.337026
0.337104
0.337538
0.336526
0.336152
0.336526
0.337538
0.337104
0.337026
0.337184
0.337538
0.337492
0.337469
0.337489
0.337538
0.337485
0.337466
0.337483
0.337538
0.337479
0.337458
0.337477
0.337538
0.337472
0.337448
0.33747
0.337538
0.337464
0.337439
0.337463
0.337538
0.337457
0.33743
0.337456
0.337538
0.337451
0.337422
0.337456
0.337538
0.337528
0.337533
0.337534
0.337538
0.337534
0.337533
0.337534
0.337538
0.337534
0.337533
0.337534
0.337538
0.337534
0.337533
0.337534
0.337538
0.337535
0.337533
0.337535
0.337538
0.337535
0.337533
0.337535
0.337538
0.337535
0.337533
0.337535
0.337538
0.337535
0.337533
0.337535
0.337538
0.337535
0.337533
0.337535
0.337538
0.337535
0.337533
0.337535
0.337538
0.337535
0.337534
0.337535
0.337538
0.337535
0.337534
0.337535
0.337538
0.337535
0.337534
0.337535
0.337538
0.337535
0.337533
0.337535
0.337538
0.337534
0.337533
0.337534
0.337538
0.337534
0.337533
0.337534
0.337538
0.337534
0.337533
0.337534
0.337538
0.337534
0.337533
0.337534
0.337538
0.337534
0.337533
0.337534
0.337538
0.337534
0.337533
0.337534
0.337538
0.337534
0.337533
0.337534
0.337538
0.337534
0.337533
0.337534
0.337538
0.337534
0.337533
0.337534
0.337538
0.337534
0.337533
0.337534
0.337538
0.337534
0.337533
0.337534
0.337538
0.337534
0.337533
0.337534
0.337538
0.337534
0.337533
0.337534
0.337538
0.337534
0.337532
0.337534
0.337538
0.337534
0.337533
0.337534
0.337538
0.337534
0.337532
0.337534
0.337538
0.337534
0.337532
0.337534
0.337538
0.337534
0.337532
0.337534
0.337538
0.337534
0.337533
0.337534
0.337538
0.337537
0.337537
0.337537
0.337538
0.337537
0.337537
0.337537
0.337538
0.337537
0.337537
0.337537
0.337538
0.337537
0.337537
0.337537
0.337538
0.337537
0.337537
0.337537
0.337538
0.337537
0.337537
0.337537
0.337538
0.337537
0.337537
0.337537
0.337538
0.337537
0.337537
0.337537
0.337538
0.337537
0.337537
0.337537
0.337538
0.337537
0.337537
0.337537
0.337538
0.337537
0.337537
0.337537
0.337538
0.337537
0.337537
0.337537
0.337538
0.337537
0.337537
0.337537
0.337538
0.337537
0.337537
0.337537
0.337538
0.337537
0.337537
0.337537
0.337538
0.337537
0.337537
0.337537
0.337538
0.337537
0.337537
0.337537
0.337538
0.337537
0.337537
0.337537
0.337538
0.337537
0.337537
0.337537
0.337538
0.337537
0.337537
0.337537
0.337538
0.337537
0.337537
0.337537
0.337538
0.337537
0.337537
0.337537
0.337538
0.337537
0.337537
0.337537
0.337538
0.337537
0.337537
0.337537
0.337538
0.337537
0.337537
0.337537
0.337538
0.337538
0.337538
0.337538
0.337538
0.337538
0.337538
0.337538
0.337538
0.337538
0.337538
0.337538
0.337538
0.337538
0.337538
0.337538
0.337538
0.337538
0.337538
0.337538
0.337538
0.337538
0.337538
0.337538
0.337538
0.337538
0.337538
0.337538
0.337538
0.337538
0.337538
0.337538
0.337538
0.337538
0.337538
0.337538
0.337538
0.337538
0.337538
0.337538
0.337538
0.337538
0.337538
0.337538
0.337538
0.337538
0.337538
0.337538
0.337538
0.337538
0.337538
0.337538
0.337538
0.337538
0.337538
0.337538
0.337538
0.337538
0.337538
0.337538
0.337538
0.337538
0.337538
0.337538
0.337538
0.337538
0.337538
0.337538
0.337538
0.337538
0.337538
0.337538
0.337538
0.337538
0.337538
0.337538
0.337538
0.337538
0.337538
0.337538
0.337538
0.337538
0.337538
0.337538
0.337538
0.337538
0.337538
0.337538
0.337538
0.337538
0.337538
0.337538
0.337538
0.337538
0.337538
0.337538
0.337538
0.337538
0.337538
0.337538
0.337538
0.337538
0.337538
0.337538
0.337538
0.337538
0.337538
0.337538
0.337538
0.337538
0.337538
0.337538
0.337538
0.337538
0.337538
0.337538
0.337538
0.337538
0.337538
0.337538
0.337538
0.337538
0.337538
0.337538
0.337538
0.337538
0.337538
0.337538
0.337538
0.337538
0.337538
0.337538
0.337538
0.337538
0.337538
0.337538
0.337538
0.337538
0.337538
0.337538
-2.67075
-2.48852
-2.31679
-2.15821
-2.01539
-1.89025
-1.78572
-1.70497
-1.65105
-1.6239
-1.61287
-1.61692
-1.6317
-1.65241
-1.67698
-1.723
-1.79748
-1.89759
-2.02007
-2.16162
-2.31921
-2.49015
-2.67216
-2.86337
-3.06221
-3.26743
-3.478
-3.69307
-3.91197
-4.13413
-4.35909
-4.58646
-4.81594
-5.04724
-5.28014
-5.51445
-5.75001
-5.98668
-6.22434
-6.46289
-6.70223
-6.94228
-7.18299
-7.42428
-7.6661
-7.90842
-8.15118
-8.34053
-8.29362
-8.25373
-8.22096
-8.19539
-8.17709
-8.16611
-8.16246
-8.16611
-8.17709
-8.19539
-8.22096
-8.25373
-8.29362
-8.34053
-8.15118
-7.90842
-7.6661
-7.42428
-7.18299
-6.94228
-6.70223
-6.46289
-6.22434
-5.98668
-5.75001
-5.51445
-5.28014
-5.04724
-4.81594
-4.58646
-4.35909
-4.13413
-3.91197
-3.69307
-3.478
-3.26743
-3.06221
-2.86337
-2.67216
-2.49015
-2.31921
-2.16162
-2.02007
-1.89759
-1.79748
-1.723
-1.67698
-1.65241
-1.6317
-1.61692
-1.61287
-1.6239
-1.65105
-1.70497
-1.78572
-1.89025
-2.01539
-2.15821
-2.31679
-2.48852
-2.67075
-2.71252
-2.57669
-2.45667
-2.35458
-2.27251
-2.21241
-2.17584
-2.16385
-2.17584
-2.21241
-2.27251
-2.35458
-2.45667
-2.57669
-2.71252
-1.93732
-3.81473
-5.76848
-1.52363
-1.22551
-1.2248
-4.81377
-0.767268
0.325926
0.324155
-6.75247
-7.15882
-1.26886
-1.24128
-1.97538
-0.674176
-0.712973
-0.23552
-1.40148
-0.742377
-0.713149
-1.14376
-0.489712
-2.71024
-2.80071
-2.12507
-3.46603
-0.760727
0.326152
0.327215
0.325568
0.326224
-0.866339
-0.23586
0.3259
0.325495
0.328978
0.328881
0.328687
0.32701
-3.64819
-1.97448
-5.76848
-5.18333
-6.36238
-4.83106
-1.26792
-0.705603
-0.295322
0.328599
0.32708
0.325843
0.327216
0.32791
0.327178
-0.334227
-0.266336
-2.88889
-7.33797
-6.72248
-1.74532
-0.89203
-0.449921
-0.278312
-0.0223965
0.328884
-0.603435
-0.0796804
0.328852
0.328626
-1.73724
-0.701838
-0.310006
-0.682622
-0.44438
-0.0842842
0.327929
-0.0132705
-0.348356
-0.0304954
-0.0917623
0.107042
0.328635
0.101148
0.325616
0.327659
0.328701
0.330106
-0.265471
-0.0486793
-0.341805
0.153141
-0.716281
-0.0709939
0.117658
-1.40644
-0.379236
-0.696357
-0.0365633
0.141835
0.208716
0.326721
0.326917
0.0964417
0.192939
-3.04164
0.1154
0.209209
0.223513
0.152756
0.233719
0.326327
0.2698
0.323406
0.259791
0.328881
0.32591
0.329031
0.178909
0.241145
0.324441
0.324473
0.285265
0.210402
0.328881
0.216934
0.328882
0.258451
0.259023
0.107699
0.0972885
0.280223
0.293242
0.290657
0.326238
0.288218
0.295031
0.326877
0.27459
0.297909
0.326948
0.300124
0.317472
0.300816
0.286022
0.300733
0.327114
0.315146
0.309154
0.328082
0.328981
0.317153
0.31771
0.3156
0.323985
-0.070235
-0.227335
0.194166
0.263734
0.267665
0.282849
0.294123
0.307229
0.30838
0.314761
0.295613
0.300066
0.290121
0.327362
0.32687
0.322744
0.25628
0.280343
0.325015
0.228561
0.196914
0.264206
0.295497
0.29446
0.327278
0.25584
0.241632
0.284206
0.280876
0.241854
0.283248
0.302162
0.304286
0.305234
0.315868
0.320549
0.303927
0.310067
0.313704
0.306916
0.320351
0.328904
0.328337
0.316318
0.307761
0.319466
0.312228
0.320665
0.311145
0.328881
0.300558
0.32749
0.261397
0.252873
0.329247
0.28873
0.294409
0.271579
0.198335
0.216264
0.304434
0.325067
0.316355
0.319976
0.302142
0.310645
0.322863
0.330563
0.328881
0.330355
0.326696
0.329213
0.321777
0.312464
0.184289
0.315781
0.317189
0.312327
0.295284
0.276481
0.33017
0.246575
0.28856
0.249086
0.32798
0.328914
0.32093
0.308664
0.316044
0.303188
-0.00886482
-1.02328
-0.702135
0.317226
0.313392
0.316043
0.314238
0.324781
0.314809
0.273135
0.251179
0.297065
0.316921
0.324474
0.304267
0.322907
0.317892
-4.27347
-4.44738
0.31067
0.326312
-5.25574
-6.04737
0.313644
-0.939261
0.318226
0.324882
0.320341
-0.206622
0.102479
-7.56336
-7.53304
0.193704
0.14586
0.210354
0.269695
0.17418
0.197116
-0.294441
-0.281207
-0.00545102
-0.176685
0.0422744
0.328881
0.326621
0.328235
0.326017
0.147642
0.324931
-0.143066
0.0350985
0.160804
-0.440063
0.0736963
0.151107
0.23038
0.238311
0.277121
0.277641
0.32789
-0.121139
-0.00127105
0.1732
0.327431
-0.661374
0.300798
-0.083432
0.0266034
0.168809
0.328134
0.323905
-0.160587
0.0425181
0.173154
0.32613
0.133577
0.231308
0.25254
0.204887
0.267107
0.326735
0.327156
0.24484
0.284066
0.287428
0.327763
0.236309
0.287432
0.2405
0.327211
0.213929
0.330389
0.329021
0.259959
0.291135
0.327792
0.281382
0.215394
0.272971
0.291953
0.290699
0.327416
0.246757
0.330499
0.22356
0.272004
0.268459
0.327606
0.222139
0.267295
0.287977
0.29512
0.294398
0.326981
0.127666
0.298678
0.299632
0.329805
0.295794
0.304766
0.324433
0.288776
0.301169
0.325813
0.302836
0.319627
0.324507
0.274407
0.199003
0.0391146
0.300286
0.302812
0.323416
0.142805
0.225056
0.275562
0.292055
0.326959
0.144258
0.304196
0.301771
0.30226
0.313242
-0.422366
0.302651
0.308238
0.316397
0.328665
0.314929
0.316324
0.317836
0.328497
0.329279
0.315088
0.314393
0.328558
0.328919
0.327748
0.328866
0.315499
0.32445
0.328866
0.32936
0.328645
0.316157
0.31671
0.329654
0.329416
0.327987
0.329706
0.310799
-0.0908215
-0.35211
0.328054
0.319264
0.307336
0.0630261
0.227313
0.276755
0.233239
0.280971
0.247697
0.290845
0.271191
0.326287
0.215728
0.27941
0.295918
0.324777
0.299372
0.325072
0.305321
0.320412
0.298721
0.327308
0.297326
0.283941
0.187271
0.313763
0.311925
0.326506
0.311676
0.327921
0.301062
0.32951
0.313161
0.31795
0.329843
0.305362
0.306713
0.315989
0.320796
0.328757
0.330354
0.151246
0.317228
0.266968
0.301377
0.319113
0.315924
0.317004
0.314272
0.315055
0.315512
0.318881
0.125905
0.0332043
0.318662
0.153656
0.315418
0.310571
0.309024
0.297632
-0.637249
0.313034
-0.447811
0.318354
0.314277
0.322526
0.0441567
0.313262
-0.438231
-0.134189
0.212192
0.310926
0.329602
0.323005
0.328875
0.328914
0.328866
-0.381797
0.328524
0.327896
0.315377
0.328925
0.329004
0.329736
0.329015
0.329343
0.330107
0.329009
0.329578
-0.0323106
0.328893
0.0562616
-1.17604
0.233655
0.328981
0.329753
0.318603
0.281106
0.301247
0.313097
0.320208
0.309433
0.328594
0.327986
0.326478
0.328355
0.32881
0.325958
0.316696
0.328838
-1.08307
0.330141
0.308381
0.306272
0.326589
0.310565
0.328834
0.327934
0.328866
0.330001
0.328832
0.32834
0.0017763
0.0651468
0.330053
0.33008
0.32996
0.330744
0.216457
0.329558
0.32813
0.33135
0.330493
0.328408
0.327533
0.32879
0.326967
0.32887
0.329064
-1.01794
-1.02938
0.31559
0.330718
0.331448
0.330018
-4.1484
0.33167
0.31813
0.225174
0.26464
-0.0538778
0.318195
0.331253
0.330855
0.316902
0.329811
0.319016
0.287667
0.330558
0.329306
-0.491413
0.120085
0.316503
0.317774
0.249489
-1.14191
0.331258
0.0796223
0.264892
0.329341
-0.430864
0.0787268
0.271157
-0.148312
0.254627
0.331333
0.331024
0.318986
0.217514
0.0474844
0.316578
0.130038
0.323499
0.329066
0.32723
-0.546297
-0.565067
-0.646228
-0.957511
-0.949521
-1.19914
0.334604
0.334611
0.329189
0.333524
0.3332
0.327629
0.332064
0.333088
0.270806
0.275068
0.257156
0.31491
0.322675
0.320977
0.286378
0.285783
0.27633
0.304908
0.316298
0.309474
0.281557
0.282137
0.267921
0.295818
0.295816
0.287445
-7.23319
-6.84996
-6.74963
-0.746947
-0.813237
-0.522908
0.327188
0.321306
0.320153
0.28166
0.279682
0.265759
-1.15953
-0.723762
-1.1799
-0.872365
-1.18607
-1.06902
0.327505
0.323233
0.333266
0.32589
0.316436
0.315726
0.333156
0.328714
0.333082
0.330032
0.325774
0.33328
0.247625
0.275429
0.243475
0.294604
0.292922
0.285762
0.324186
0.331692
0.334435
0.334504
-1.32976
-0.885205
-1.28286
0.306175
0.318155
0.323434
0.319397
0.324595
0.323264
0.333293
0.227168
0.251645
0.217418
0.318555
0.32605
0.319723
0.325719
0.318761
0.321727
-6.19253
-6.60298
0.323925
0.32154
0.326862
0.158168
0.211893
0.148469
-0.958683
-1.3589
0.21308
0.18867
0.0982426
0.0286163
0.0482688
0.328502
0.323342
0.332378
0.14242
0.121216
0.183422
0.330994
0.330994
0.328238
0.322472
0.321367
0.233924
0.234605
0.210302
0.325463
0.317429
0.316415
0.323563
0.3326
0.283865
0.297859
-2.42042
-2.49172
-2.00408
0.322653
0.326791
0.333391
0.323816
0.317031
0.320492
0.247799
0.259414
0.235256
0.264454
0.275599
0.255994
0.273315
0.262001
0.252489
0.325386
0.329102
0.333823
0.331006
0.331006
-0.0192336
-0.122359
-0.132635
0.324684
0.33312
0.270944
0.291568
0.267372
0.302266
0.302784
0.294987
0.0774736
0.0777379
0.153591
0.291258
0.296152
0.285265
0.258905
0.227236
-1.44022
-1.17708
-1.4326
0.31689
0.322626
0.318848
0.32274
0.324333
0.207304
0.182928
0.165342
-1.33819
-1.04091
-1.32008
0.320292
0.327606
0.32156
0.320786
0.319357
0.3265
0.2967
0.294849
0.289293
0.316912
0.318246
0.326784
0.237904
0.198564
-1.26987
-1.42256
-0.277632
-0.515751
-0.474009
-0.0302632
-0.142863
-0.170509
-1.75953
-1.30654
-1.68396
-3.07998
-3.54119
-3.19299
0.326921
0.31991
0.318935
0.244436
0.254264
0.223005
-2.84032
-2.41442
0.322874
0.317084
0.322118
-1.7148
-1.57644
-2.00675
-0.953493
-1.07731
-0.892454
0.321481
0.325572
0.320087
0.310562
0.320446
0.315127
-1.58048
-1.6915
-1.61476
-1.69272
-1.42788
0.18521
0.218708
0.175415
0.331929
0.325915
0.331517
-1.77681
-1.82381
-1.05782
0.114773
0.174545
0.102038
0.322099
0.316351
-0.954717
-2.75245
0.315509
0.321571
0.321152
0.282472
0.275958
0.266482
-1.93595
0.318495
0.312491
0.324758
0.323945
0.329686
0.330201
0.325178
0.332514
0.325479
0.31643
-0.979185
-0.654507
0.283573
0.322693
0.333434
0.299646
0.299019
0.291332
0.315964
0.321476
0.321917
0.290216
0.288089
0.279005
-2.02492
-2.29947
0.275303
0.240281
-0.546172
-0.348389
-0.50019
-0.129147
0.00118462
-0.0979763
0.197165
0.230451
0.194058
0.317618
0.323352
0.31929
0.319886
0.328816
0.313927
0.302885
0.3061
0.235997
0.259851
0.228743
0.326207
0.320516
0.318788
0.279852
0.28794
0.272304
0.299689
0.305606
0.294654
0.240451
0.253742
0.227234
0.0200228
-0.0293187
0.292405
0.29407
0.282556
0.311696
0.315571
0.293898
0.310576
0.293846
0.311829
0.293632
0.293754
0.236766
0.273407
0.234959
0.301228
0.306204
0.295114
0.331925
0.331925
-0.18128
-0.0395359
-0.161565
-1.59607
0.334281
0.326943
0.330201
-5.60489
-5.77284
-5.65084
-5.20393
0.316569
0.32371
0.316289
-1.45972
-1.92073
-2.30161
0.307816
0.315837
0.0302813
0.104682
0.32751
0.325276
0.322786
0.0378801
0.0246704
-0.0484896
0.0685117
0.139416
0.0511067
-0.468932
-0.523041
-0.290688
0.325216
0.327825
0.322961
0.328399
0.322878
0.325527
0.330223
0.329234
0.283887
0.286281
0.272322
0.184805
0.21298
0.181381
0.228951
0.217714
0.321135
0.324209
0.327087
0.210366
0.314987
0.323596
0.31915
0.321445
0.326202
0.325425
0.32757
0.322943
-1.23948
0.204656
0.238425
0.20257
0.327185
0.321401
0.320062
-0.00149735
0.0399138
0.298141
0.293179
0.286008
0.322601
0.328248
-0.371604
-0.284696
0.116978
0.0964777
0.148314
-1.12829
-0.78788
0.225594
0.245043
0.258653
-0.294933
-0.546385
-0.512172
0.330223
-1.9263
0.319419
0.309564
0.31405
0.214208
0.241724
0.206516
0.323614
0.316665
0.320054
-1.45221
-0.559515
-0.892364
-0.81493
0.295315
0.310926
0.288581
-2.02742
-1.57776
0.312871
0.322605
0.315054
0.262921
0.270033
0.248757
0.323789
0.323324
0.329339
0.321797
0.326286
0.314691
0.320548
0.312893
0.321838
0.319516
0.325758
0.244182
0.237693
0.309295
0.259876
0.277983
0.251895
0.325954
0.320137
0.323057
-1.05497
0.327834
0.327546
0.263475
0.236947
0.320299
0.322401
0.326543
0.325176
0.328244
0.323279
0.305004
0.312111
-0.536262
-0.666672
-0.575173
-0.458344
-0.683456
-0.669977
-2.395
-0.480955
-0.246741
0.284263
0.294134
0.28111
0.327276
0.322424
0.32072
-1.02235
-1.31583
0.322488
0.313085
0.314759
-2.0367
-1.4305
-1.15034
-0.192446
-0.0333022
-0.189293
0.293771
0.292584
0.282077
0.0855986
0.146774
0.108764
0.322386
0.326963
0.280503
0.259921
0.0733593
0.0390136
0.30808
0.190806
0.184567
-0.33149
-2.31436
0.252054
0.251517
0.326516
0.328435
0.323698
0.326733
0.327581
0.222628
0.254599
0.311006
0.329009
0.323971
0.288007
0.299427
0.283002
-7.03636
-6.54636
0.108245
0.160072
0.0334556
0.121632
0.33116
0.33116
0.328572
0.322784
0.322144
0.212972
0.248957
-0.28461
-0.0984138
-0.262382
0.326528
0.333069
0.308211
0.312865
0.319856
0.181895
0.192978
-1.37327
0.0268961
0.323771
0.328221
0.322287
-0.524046
-0.665174
-0.612484
0.319961
0.32243
0.325886
-3.33565
-3.42267
-3.69943
0.176432
0.222448
0.307773
-1.38838
0.225631
0.262241
-4.11311
-4.04502
-0.78211
-0.560131
-0.545398
-0.0172221
-0.0687727
0.142722
0.147076
0.32519
0.327374
0.310818
0.317852
0.309689
-1.86414
0.261874
0.261873
0.222925
0.33121
0.33121
0.277953
0.270661
-1.65058
-1.39844
-0.80313
-0.951059
-4.19105
-3.80561
-3.86077
0.328583
0.327928
0.325161
0.307809
0.307714
0.322166
0.327951
0.321203
0.302049
0.303329
0.292023
0.315629
0.301877
0.301179
0.308301
0.309911
-0.0193645
-0.157076
0.321189
0.31653
0.322638
0.310303
0.317895
0.314931
0.0997776
0.327586
0.32243
0.321146
-3.95498
-3.53006
0.328255
0.325166
0.323066
0.315474
0.321249