<VTKFile type="UnstructuredGrid" version="0.1" byte_order="LittleEndian">
  <UnstructuredGrid>
    <Piece NumberOfPoints="6717" NumberOfCells="12963">
      <Points>
        <DataArray type = "Float64" NumberOfComponents="3" format="ascii">
3.5 2.00105 0.0 
3.5 1.99895 0.0 
0 0 0.0 
12 0 0.0 
0 4 0.0 
12 4 0.0 
6.29197 2.31448 0.0 
2.09701 0.750793 0.0 
2.93078 1.94682 0.0 
3.41961 1.98773 0.0 
3.46822 2.00422 0.0 
3.4492 2.00609 0.0 
9.75011 0.429191 0.0 
6.71212 0.246818 0.0 
3.4284 2.00811 0.0 
3.08807 1.95055 0.0 
3.40943 2.00992 0.0 
4.75094 2.06044 0.0 
3.39055 2.01171 0.0 
10.5646 0.785159 0.0 
3.37064 2.01358 0.0 
2.38671 0.662442 0.0 
4.04851 2.15296 0.0 
8.39244 0.904767 0.0 
3.3441 2.01602 0.0 
2.34651 1.28604 0.0 
3.32932 2.01737 0.0 
3.31416 2.01873 0.0 
3.25318 2.34864 0.0 
3.30101 2.01991 0.0 
10.9402 0 0.0 
4.93242 2.17037 0.0 
3.28104 2.02167 0.0 
11.443 2.87979 0.0 
3.26112 2.02341 0.0 
9.25267 3.0291 0.0 
3.58127 1.96949 0.0 
2.93437 1.93429 0.0 
3.23123 2.02597 0.0 
7.44544 2.01728 0.0 
8.28155 1.27045 0.0 
3.21131 2.02765 0.0 
3.20135 2.02848 0.0 
3.18889 2.02951 0.0 
3.17635 2.03053 0.0 
0.759789 2.22952 0.0 
3.26847 2.03439 0.0 
3.16034 2.03183 0.0 
3.15052 2.03262 0.0 
0.628639 2.20506 0.0 
3.02628 3.10187 0.0 
3.13957 2.03349 0.0 
2.48103 2.13794 0.0 
3.1296 2.03426 0.0 
3.23484 2.22859 0.0 
3.12171 2.03487 0.0 
3.26399 0.897736 0.0 
3.11166 2.03562 0.0 
2.97186 1.93913 0.0 
3.10169 2.03635 0.0 
4.89222 1.81085 0.0 
3.0922 2.03704 0.0 
9.87757 2.91797 0.0 
3.08224 2.03774 0.0 
8.5001 0.919441 0.0 
3.07177 2.03847 0.0 
3.05986 2.03927 0.0 
3.04983 2.03993 0.0 
2.14662 1.23635 0.0 
3.03985 2.04058 0.0 
4.30691 0 0.0 
3.02987 2.04121 0.0 
8.66013 2.72876 0.0 
3.0199 2.04182 0.0 
3.00992 2.04242 0.0 
2.51648 1.97536 0.0 
3.00193 2.04289 0.0 
2.24493 1.09945 0.0 
1.99136 0.46596 0.0 
2.98711 2.04373 0.0 
2.75913 0.84147 0.0 
2.97747 2.04427 0.0 
3.5 4 0.0 
2.96958 2.04469 0.0 
3.47062 0 0.0 
2.96201 2.04509 0.0 
3.09546 2.05186 0.0 
2.95043 2.04569 0.0 
9.9963 2.9126 0.0 
2.94005 2.0462 0.0 
2.93089 2.04665 0.0 
4.91933 1.88006 0.0 
3.54494 3.10276 0.0 
2.92007 2.04715 0.0 
9.25464 2.64568 0.0 
2.91208 2.04752 0.0 
4.90901 0.0899404 0.0 
10.8572 2.96282 0.0 
2.8996 2.04807 0.0 
2.8946 2.04828 0.0 
8.13323 0.520161 0.0 
2.88961 2.04847 0.0 
7.28529 1.06274 0.0 
2.88461 2.04866 0.0 
2.88003 2.04882 0.0 
2.23871 2.54735 0.0 
7.31688 1.17813 0.0 
2.87462 2.04899 0.0 
6.48555 2.23057 0.0 
2.86962 2.04914 0.0 
8.05447 1.76617 0.0 
7.91007 2.01231 0.0 
2.85755 2.04945 0.0 
2.86213 2.04934 0.0 
1.83547 2.92131 0.0 
11.0785 1.20913 0.0 
2.85213 2.04957 0.0 
7.50652 4 0.0 
2.84714 2.04967 0.0 
4.97208 1.80831 0.0 
2.84214 2.04975 0.0 
2.83714 2.04983 0.0 
3.98751 2.29354 0.0 
2.7008 2.0473 0.0 
2.83214 2.04989 0.0 
2.82714 2.04994 0.0 
4.87374 3.8004 0.0 
2.81965 2.04999 0.0 
2.82215 2.04997 0.0 
2.91523 2.08308 0.0 
7.53866 2.98361 0.0 
2.81215 2.05001 0.0 
2.80472 2.05001 0.0 
2.79507 2.04997 0.0 
2.79965 2.05 0.0 
5.55584 1.18487 0.0 
2.76988 2.05334 0.0 
2.78966 2.04993 0.0 
5.28166 3.74822 0.0 
2.78466 2.04988 0.0 
9.45522 2.67434 0.0 
2.77966 2.04982 0.0 
9.53318 2.93248 0.0 
2.77466 2.04975 0.0 
5.42737 0.903215 0.0 
2.77216 2.04971 0.0 
2.76716 2.04961 0.0 
2.76467 2.04956 0.0 
2.88761 1.91732 0.0 
2.75967 2.04946 0.0 
2.75467 2.04934 0.0 
2.90866 0.939999 0.0 
2.74967 2.0492 0.0 
1.92868 0.940661 0.0 
2.74468 2.04906 0.0 
9.51856 2.75585 0.0 
2.73968 2.04891 0.0 
2.73469 2.04874 0.0 
9.41426 2.76593 0.0 
2.73219 2.04865 0.0 
2.72719 2.04847 0.0 
2.72261 2.04829 0.0 
6.04432 2.99452 0.0 
2.01202 0.969728 0.0 
2.7172 2.04806 0.0 
8.83747 2.67733 0.0 
2.88831 0.860082 0.0 
2.71221 2.04785 0.0 
1.98904 2.59055 0.0 
2.70472 2.0475 0.0 
2.67763 2.04605 0.0 
2.69045 2.04677 0.0 
2.69475 2.047 0.0 
6.00042 4 0.0 
4.80262 2.1069 0.0 
2.68477 2.04646 0.0 
3.21099 1.75099 0.0 
8.13824 0.956293 0.0 
2.67479 2.04588 0.0 
9.04251 2.70224 0.0 
2.66978 2.04558 0.0 
2.6648 2.04526 0.0 
8.08698 1.0391 0.0 
2.65981 2.04494 0.0 
8.79605 3.01706 0.0 
2.65482 2.04461 0.0 
9.48107 3.02385 0.0 
2.64741 2.04409 0.0 
8.98557 2.77888 0.0 
7.99404 0.835602 0.0 
2.63986 2.04355 0.0 
7.4684 0 0.0 
2.63239 2.04298 0.0 
8.27174 0.700244 0.0 
2.62498 2.0424 0.0 
8.23459 1.16471 0.0 
2.62242 2.0422 0.0 
8.44244 0.812526 0.0 
2.61495 2.04158 0.0 
9.08968 2.78231 0.0 
2.60755 2.04095 0.0 
3.26069 1.9421 0.0 
7.02001 2.11165 0.0 
2.60001 2.04028 0.0 
9.42673 3.11425 0.0 
2.58798 2.03916 0.0 
2.59254 2.03959 0.0 
2.32706 2.06736 0.0 
4.9003 2.23819 0.0 
8.97315 2.9414 0.0 
2.58259 2.03864 0.0 
5.73489 0 0.0 
9.42064 2.93754 0.0 
2.57513 2.0379 0.0 
2.57264 2.03764 0.0 
2.57016 2.03735 0.0 
2.56768 2.03702 0.0 
2.56522 2.03662 0.0 
2.56276 2.03616 0.0 
2.56031 2.03565 0.0 
2.55788 2.03508 0.0 
2.55546 2.03446 0.0 
2.55305 2.03379 0.0 
2.55066 2.03307 0.0 
2.54828 2.0323 0.0 
2.54592 2.03148 0.0 
2.54357 2.03062 0.0 
2.54124 2.02971 0.0 
2.53893 2.02876 0.0 
2.53664 2.02777 0.0 
2.53436 2.02674 0.0 
2.5321 2.02567 0.0 
2.52986 2.02456 0.0 
2.52764 2.02342 0.0 
2.52544 2.02224 0.0 
2.52325 2.02103 0.0 
2.52108 2.01978 0.0 
2.51893 2.01851 0.0 
2.5168 2.0172 0.0 
2.51469 2.01587 0.0 
2.51259 2.01451 0.0 
2.51052 2.01312 0.0 
2.50845 2.0117 0.0 
2.50644 2.01022 0.0 
2.50456 2.00858 0.0 
2.50283 2.00678 0.0 
2.50139 2.00474 0.0 
2.50037 2.00246 0.0 
2.5 2 0.0 
2.50037 1.99754 0.0 
2.50139 1.99526 0.0 
2.50283 1.99322 0.0 
2.50456 1.99142 0.0 
2.50644 1.98978 0.0 
2.50845 1.9883 0.0 
2.51052 1.98688 0.0 
2.51259 1.98549 0.0 
2.51469 1.98413 0.0 
2.5168 1.9828 0.0 
2.51893 1.98149 0.0 
2.52108 1.98022 0.0 
2.52325 1.97897 0.0 
2.52544 1.97776 0.0 
2.52764 1.97658 0.0 
2.52986 1.97544 0.0 
2.5321 1.97433 0.0 
2.53436 1.97326 0.0 
2.53664 1.97223 0.0 
2.53893 1.97124 0.0 
2.54124 1.97029 0.0 
2.54357 1.96938 0.0 
2.54592 1.96852 0.0 
2.54828 1.9677 0.0 
2.55066 1.96693 0.0 
2.55305 1.96621 0.0 
2.55546 1.96554 0.0 
2.55788 1.96492 0.0 
2.56031 1.96435 0.0 
2.56276 1.96384 0.0 
2.56522 1.96338 0.0 
2.56768 1.96298 0.0 
2.57016 1.96265 0.0 
2.57264 1.96236 0.0 
2.57513 1.9621 0.0 
2.58259 1.96136 0.0 
8.49125 0 0.0 
2.58998 1.96065 0.0 
2.70265 2.05767 0.0 
2.59503 1.96018 0.0 
2.60001 1.95972 0.0 
6.22005 2.37044 0.0 
2.60499 1.95928 0.0 
2.60997 1.95884 0.0 
6.91081 2.08293 0.0 
2.61495 1.95842 0.0 
2.61993 1.95801 0.0 
4.98986 2.23313 0.0 
2.62491 1.9576 0.0 
2.62989 1.95721 0.0 
6.98955 2.0142 0.0 
2.63488 1.95683 0.0 
2.63986 1.95645 0.0 
2.64485 1.95609 0.0 
7.17883 1.01419 0.0 
2.64983 1.95574 0.0 
2.6623 1.9549 0.0 
2.65482 1.95539 0.0 
2.65981 1.95506 0.0 
8.17613 1.24546 0.0 
8.34154 0.994029 0.0 
2.66729 1.95458 0.0 
11.2956 1.25205 0.0 
8.33045 1.37709 0.0 
2.67228 1.95427 0.0 
2.67727 1.95397 0.0 
6.22457 1.68412 0.0 
2.68475 1.95354 0.0 
5.54343 0.890313 0.0 
2.69217 1.95314 0.0 
11.1454 3.21 0.0 
2.69723 1.95288 0.0 
2.69973 1.95275 0.0 
5.1041 2.07457 0.0 
2.70715 1.95239 0.0 
9.29247 4 0.0 
6.25086 4 0.0 
2.71221 1.95215 0.0 
2.7172 1.95194 0.0 
4.78099 1.94788 0.0 
2.7222 1.95173 0.0 
9.88084 4 0.0 
2.72719 1.95153 0.0 
3.36542 2.27615 0.0 
3.45556 2.94651 0.0 
2.73219 1.95135 0.0 
2.73718 1.95118 0.0 
4.31319 2.91736 0.0 
4.29586 2.84856 0.0 
2.74218 1.95102 0.0 
5.3774 1.70986 0.0 
2.74967 1.9508 0.0 
2.76007 1.95054 0.0 
2.7571 1.9506 0.0 
5.0377 2.08673 0.0 
1.27321 0 0.0 
2.76467 1.95043 0.0 
2.76966 1.95034 0.0 
4.37834 2.58242 0.0 
2.77216 1.95029 0.0 
2.77716 1.95021 0.0 
2.77966 1.95018 0.0 
2.78466 1.95012 0.0 
2.79209 1.95005 0.0 
5.03873 1.95058 0.0 
2.79715 1.95001 0.0 
4.50508 0.761179 0.0 
1.92798 1.35122 0.0 
2.80215 1.94999 0.0 
2.80715 1.94998 0.0 
6.53399 2.18392 0.0 
2.81215 1.94999 0.0 
2.81715 1.95 0.0 
2.62821 0.834509 0.0 
6.537 2.04355 0.0 
6.11752 3.5967 0.0 
2.82215 1.95003 0.0 
2.82714 1.95006 0.0 
2.82964 1.95009 0.0 
3.65447 2.89863 0.0 
2.83707 1.95017 0.0 
2.84464 1.95029 0.0 
2.84964 1.95038 0.0 
3.11107 0.902433 0.0 
2.85463 1.95048 0.0 
5.01917 1.52083 0.0 
5.09414 1.88439 0.0 
2.86213 1.95066 0.0 
2.86713 1.95079 0.0 
7.44612 3.63277 0.0 
2.87212 1.95093 0.0 
2.87712 1.95109 0.0 
7.21527 1.81955 0.0 
2.88211 1.95125 0.0 
7.24197 1.24569 0.0 
2.88711 1.95143 0.0 
6.67263 2.28812 0.0 
2.8921 1.95162 0.0 
5.47012 2.9613 0.0 
2.8971 1.95183 0.0 
5.24929 1.82803 0.0 
2.90417 1.95213 0.0 
2.91208 1.95248 0.0 
5.14871 1.60688 0.0 
2.92207 1.95294 0.0 
6.70798 3.20655 0.0 
2.93157 1.95339 0.0 
1.73985 0 0.0 
2.94154 1.95387 0.0 
2.95152 1.95437 0.0 
3.265 1.95283 0.0 
2.96201 1.95491 0.0 
5.87523 4 0.0 
2.9715 1.95541 0.0 
2.99932 0.894603 0.0 
2.98147 1.95595 0.0 
0.966707 1.21788 0.0 
2.99145 1.95651 0.0 
5.25744 2.73845 0.0 
3.00193 1.95711 0.0 
6.34731 0.860512 0.0 
3.01143 1.95767 0.0 
2.90505 2.09926 0.0 
3.02139 1.95827 0.0 
8.495 2.49977 0.0 
3.03137 1.95889 0.0 
4.36209 2.87122 0.0 
3.04135 1.95952 0.0 
3.24185 1.07672 0.0 
3.05132 1.96016 0.0 
5.70508 0.409875 0.0 
3.0618 1.96086 0.0 
7.93095 2.1233 0.0 
3.07177 1.96153 0.0 
0.769062 1.4551 0.0 
3.08126 1.96219 0.0 
2.3793 1.37189 0.0 
3.09172 1.96293 0.0 
3.09837 1.96341 0.0 
5.34521 2.79577 0.0 
8.70499 0.312669 0.0 
3.11166 1.96438 0.0 
5.23001 0.397017 0.0 
3.12114 1.96509 0.0 
3.1311 1.96585 0.0 
6.49372 3.12459 0.0 
3.14156 1.96667 0.0 
7.25455 4 0.0 
3.15104 1.96742 0.0 
2.42028 2.51057 0.0 
6.6917 2.37881 0.0 
3.17146 1.96907 0.0 
6.59107 2.00719 0.0 
3.18336 1.97004 0.0 
6.42434 2.17873 0.0 
3.20135 1.97152 0.0 
3.22072 1.97314 0.0 
6.86225 2.24295 0.0 
8.69184 0.104354 0.0 
3.23123 1.97403 0.0 
6.44308 2.27009 0.0 
3.24555 1.97525 0.0 
8.58402 0.30847 0.0 
3.26112 1.97659 0.0 
6.05132 2.47649 0.0 
4.64371 0.586418 0.0 
3.28104 1.97833 0.0 
6.58609 2.36832 0.0 
12 1.2385 0.0 
3.30038 1.98003 0.0 
8.26583 1.45566 0.0 
5.22904 3.62768 0.0 
3.31787 1.9816 0.0 
3.68577 0 0.0 
3.33233 1.9829 0.0 
8.37767 1.48423 0.0 
8.68938 1.7583 0.0 
3.35073 1.98458 0.0 
1.50522 0 0.0 
3.37064 1.98642 0.0 
1.04781 0 0.0 
12 0.993186 0.0 
3.39055 1.98829 0.0 
8.22608 1.63221 0.0 
9.7774 3.11042 0.0 
3.41483 1.99059 0.0 
8.65005 0.415319 0.0 
[...]
<PointData>
  <DataArray type = "Float64" Name="BLMLevelSetLayer1" format="ascii">
0.297034
0.297034
-2.90265
-8.43485
-2.90265
-8.43485
-2.51248
-1.0008
0.290516
0.293732
0.297034
0.297035
-6.14719
-3.36189
0.297034
0.284948
0.297034
-0.955319
0.297034
-6.87106
0.297034
-1.01611
-0.272124
-4.71627
0.297033
-0.413806
0.297034
0.297034
-0.0263361
0.297035
-7.40706
-1.14536
0.297034
-7.69442
0.297034
-5.54678
0.210587
0.277825
0.297034
-3.64844
-4.53969
0.297034
0.297034
0.297033
0.297034
-1.45901
0.285462
0.297034
0.297034
-1.5864
-0.76166
0.297033
0.173703
0.297033
0.0948263
0.297034
-0.778275
0.297034
0.280754
0.297034
-1.10784
0.297034
-6.14611
0.297034
-4.81827
0.297034
0.297033
0.297033
-0.535549
0.297033
-1.85864
0.297033
-4.91416
0.297033
0.297033
0.290447
0.297034
-0.622731
-1.3046
0.297032
-0.811862
0.297032
-1.69291
0.297033
-1.6903
0.297034
0.282011
0.297034
-6.26291
0.297033
0.297035
-1.12727
-0.803753
0.297033
-5.49359
0.297034
-2.07565
-7.12277
0.29703
0.29703
-4.56646
0.29703
-3.60231
0.29703
0.297032
-0.301262
-3.6071
0.29703
-2.69733
0.29703
-4.26338
-4.11305
0.29703
0.297034
-0.83446
-7.3225
0.297034
-4.18047
0.297028
-1.18733
0.297034
0.297028
-0.27149
0.297034
0.297034
0.297029
-1.96677
0.29703
0.297034
0.261361
-3.85943
0.297034
0.29703
0.297031
0.297029
-1.91413
0.293359
0.29703
-2.19834
0.29703
-5.69613
0.29703
-5.80762
0.29703
-1.92004
0.297034
0.297029
0.29703
0.262922
0.297029
0.29703
-0.714551
0.29703
-0.899501
0.29703
-5.76867
0.297029
0.29703
-5.66648
0.297034
0.297029
0.297035
-2.43436
-0.834215
0.297029
-5.08311
-0.793854
0.297034
-0.480686
0.297031
0.297031
0.297033
0.297031
-2.9042
-1.00988
0.297031
0.0764533
-4.45696
0.297031
-5.28966
0.29703
0.297031
-4.3893
0.297031
-5.0956
0.297031
-5.77086
0.297029
-5.24341
-4.34514
0.29703
-4.14639
0.297034
-4.64828
0.297031
-4.51049
0.297034
-4.78581
0.29703
-5.34698
0.297029
0.262709
-3.22471
0.29703
-5.73334
0.29703
0.297034
0.111798
-1.1232
-5.25631
0.297034
-2.70139
-5.69721
0.297024
0.297034
0.296952
0.296917
0.296947
0.297034
0.296952
0.296925
0.296953
0.297034
0.296959
0.296934
0.29696
0.297034
0.296966
0.296944
0.296967
0.297034
0.296973
0.296953
0.296974
0.297034
0.296979
0.296962
0.29698
0.297034
0.296984
0.296965
0.296988
0.297034
0.29668
0.296522
0.2966
0.297034
0.296021
0.295647
0.296021
0.297034
0.2966
0.296522
0.29668
0.297034
0.296988
0.296965
0.296984
0.297034
0.29698
0.296962
0.296979
0.297034
0.296974
0.296953
0.296973
0.297034
0.296967
0.296944
0.296966
0.297034
0.29696
0.296934
0.296959
0.297034
0.296953
0.296925
0.296952
0.297034
0.296947
0.296917
0.296952
0.297034
0.297024
0.297034
-5.07962
0.29703
0.286774
0.29703
0.29703
-2.44798
0.29703
0.29703
-3.11476
0.29703
0.29703
-1.21079
0.29703
0.29703
-3.19254
0.29703
0.29703
0.297031
-3.51132
0.297031
0.297035
0.29703
0.297031
-4.43941
-4.6477
0.297029
-7.53427
-4.57328
0.297034
0.297029
-2.44567
0.29703
-2.02776
0.297034
-7.44334
0.297029
0.297031
-1.30875
0.29703
-5.83065
-3.10341
0.297034
0.297029
-0.984974
0.297034
-6.38959
0.297029
0.0360497
-0.639754
0.297034
0.297029
-0.928076
-0.865579
0.297034
-1.6025
0.29703
0.297032
0.297029
-1.24305
-2.04348
0.297029
0.29703
-0.756282
0.297034
0.297029
0.29703
0.297029
0.297034
-1.24246
0.297029
-1.29741
-0.564837
0.297034
0.297028
-2.74246
0.297034
0.297029
-0.823419
-2.74027
-2.76851
0.297034
0.297029
0.29703
-0.613745
0.297029
0.297029
0.29703
-0.762347
0.29703
-1.2956
-1.30122
0.297034
0.297028
-3.97314
0.297034
0.297028
-3.42257
0.297034
-3.52
0.297028
-2.88856
0.297034
-1.89465
0.297029
-1.46058
0.297033
0.297034
-1.39765
0.297034
-3.12997
0.297034
-1.83004
0.297034
0.297034
0.273027
0.297034
-2.8074
0.297034
-0.763795
0.297034
-1.4233
0.297034
-1.60884
0.297034
-2.76943
0.297034
0.245651
0.297034
-4.7228
0.297034
-0.927871
0.297034
-0.598082
0.297034
-2.42097
0.297034
-4.1356
0.297034
-1.51755
0.297034
-0.322169
0.297034
0.297033
-1.71204
-5.1743
0.297034
-2.06074
0.297034
0.297034
-2.90057
0.297034
-3.95649
0.297034
-0.197883
-2.91695
0.297034
-2.79404
0.297034
-2.6327
0.297034
0.297035
-3.0739
-5.22969
0.297034
-2.65832
0.297033
-5.06067
0.297034
-2.29821
-1.52047
0.297034
-2.81083
-8.23692
0.297034
-4.49966
-2.07689
0.297033
-1.71048
0.297034
-4.60772
-4.89793
0.297034
-1.92836
0.297034
-2.17011
-8.26226
0.297034
-4.44326
-6.07763
0.297033
-5.091
0.297034
-8.06039
0.297033
-5.33555
-1.32655
0.297034
-5.96191
-0.632699
-6.07424
-2.71126
-2.52903
-3.23032
-1.73941
0.226495
-6.5803
-1.75122
-8.29477
-8.23711
-2.7127
-5.44156
-8.38114
-2.16482
-1.94365
-2.05167
-4.1975
-4.57684
-8.33438
-4.33339
-0.4922
-6.78145
-3.32655
-7.2022
-7.61232
-3.77422
-1.83847
-3.10541
-4.63805
-0.2015
-6.80848
-2.01466
-0.769782
-6.98823
-4.58406
-6.56578
-4.40777
-7.92355
-0.97856
-8.23845
-1.1779
-3.12498
-0.412286
-1.6541
-7.19708
-8.20301
-8.20497
-8.19168
-1.77073
-2.68353
-2.87586
-2.82042
-0.749978
-8.26795
-0.368836
-2.53013
-7.40556
-2.10443
-1.71749
-3.26855
-8.29423
-8.33412
-8.38103
-7.70661
-5.20657
-1.9381
-3.16024
-2.02374
-2.30076
-0.335354
-1.7635
-0.663944
-1.83798
-2.36381
-3.7363
-0.763849
-2.89835
-0.111274
0.286365
-1.66319
-1.84279
-2.53065
-3.14476
-2.96872
-5.53636
-1.65514
-0.75773
-1.68258
-1.93809
-2.633
-2.12405
-1.80985
-0.739327
-0.137445
-4.48151
-1.65368
-1.29855
-1.6722
-2.25291
-2.05713
-2.75303
-2.25184
-2.52903
0.20748
-5.61773
-2.19872
-2.3573
-3.00293
-0.773352
-2.71126
-0.395415
-0.822972
-0.289664
-2.10475
-0.727505
-2.75303
-2.21635
-2.20435
-2.21635
-6.20243
-2.31301
-2.39508
-2.49718
-2.6172
-0.766259
-2.80067
-2.80944
-1.63605
0.275353
-0.310044
-7.23844
-2.16279
-1.69152
0.110242
-0.341933
-0.269804
-2.68873
-0.0658103
-0.743823
-4.96305
0.253587
-0.382346
-5.24142
-0.876832
-1.7295
-8.05703
-0.979422
-7.38033
-0.731757
-0.747403
-0.13549
-0.137221
-0.184094
-6.77912
-2.78865
-2.37002
-4.55674
-1.59807
-0.593771
-4.50952
-0.775771
-0.667479
-0.149268
-0.963942
-2.62041
-7.60756
-0.707864
-1.61916
-5.04336
0.223882
-1.4532
-1.55381
-1.61285
0.0436303
-2.88973
-4.91517
-3.08214
-0.317009
-4.68691
-5.26224
0.2696
-0.318201
-4.22273
-1.06824
-2.50328
-0.327175
-0.294422
-0.9825
-0.732421
-2.91468
-5.01323
-5.13985
-0.510762
-5.03561
-2.90219
-0.739887
-1.50736
-4.96752
0.262922
-2.68008
-2.47113
-3.05772
-0.477509
0.0938292
0.212935
-4.39854
-2.85089
-0.277088
-1.6408
-1.72889
-5.00329
-4.67137
-3.51374
-4.99672
-4.56024
-2.85167
-4.97599
-4.75845
-0.759393
-0.64836
-2.94058
-4.46942
-4.77484
-1.03262
0.275103
-2.92649
-0.203098
-0.423536
-0.223909
-4.98244
-2.76804
-2.82443
-0.502418
-1.69662
-2.69146
-4.8018
0.082584
-1.78512
-2.49186
-2.86292
0.243302
-1.6413
-3.03882
-2.25202
-4.30974
-0.927927
-2.70216
-0.753579
-3.96592
-4.7838
-2.57115
0.288261
-1.35089
-0.193008
-1.36035
-0.82515
-4.82321
-0.480595
-0.247127
0.163422
-7.60386
-0.849985
-1.55638
-2.36163
-4.66955
-0.410288
-4.32174
-2.25383
-2.72039
0.241739
-4.44219
-4.37355
0.278138
-0.877573
-4.64158
-0.979777
-2.15658
-4.71744
-4.86247
-7.06672
0.28489
-0.650551
-0.00762461
-5.38985
-2.47431
-3.41779
-6.59808
-1.29381
-1.26039
-2.298
-2.52576
-2.64343
-2.64838
-2.2494
-0.466318
-8.17179
0.228267
-0.824831
-0.888347
-2.60437
0.237726
-1.98006
-3.26098
-0.488349
-2.5967
-1.19278
-2.54838
-1.7834
-1.60889
-3.13991
-1.52011
-3.3999
-2.42413
-0.530243
-0.893102
0.214683
-3.04197
0.279334
-1.11806
-1.60663
-6.05797
-2.16772
-1.061
-3.56021
-5.72643
-0.691286
-1.0412
-3.09389
-0.231144
0.167384
-2.86644
-1.43338
0.246938
-2.73819
-2.69638
-2.66736
-1.20128
0.227915
-7.97035
0.267526
-2.0385
-7.45943
-3.1893
-1.3942
-0.618055
-1.20104
-0.407159
-0.199112
-2.517
-0.93966
-7.39116
-0.0283849
-7.84669
-2.99127
-7.67576
-0.726306
-1.91517
-0.843769
-7.88188
-1.38873
-0.0856683
-7.63011
-4.17778
-7.96028
-1.81431
-0.875826
-5.86156
-0.988165
-1.08197
-7.84524
0.290508
0.284377
-0.505261
-3.5753
-6.202
0.228952
-1.24609
-0.888483
-1.28207
0.223628
-0.523203
-0.570699
-0.474245
-6.77332
-3.29914
-8.11201
-3.22616
-8.12871
-0.606803
-0.317371
0.149332
-0.694405
0.28189
-4.17465
-3.27722
-5.81766
-2.87939
-3.51371
-2.24275
-2.06992
-1.13073
-4.2957
-0.934497
-4.87826
-1.22653
-2.34813
0.271373
-3.3048
-1.45768
-3.37394
0.18015
0.257425
-1.84861
-1.4364
-2.93874
-3.38033
-2.05701
-1.17665
-1.51504
-1.09576
-0.500735
-2.96694
-0.185155
0.200622
-1.30402
-3.3464
-1.22658
-3.10242
-4.9341
-0.990075
-4.85278
-2.49755
0.169124
-3.05959
-1.58105
-0.543208
-6.44534
-5.92605
-3.01206
-0.36338
0.167361
-3.08768
0.21715
-2.05685
-0.525703
0.068069
-2.33864
-0.906831
0.270804
-1.46466
-0.756498
-4.79023
-2.26315
-0.580296
-3.63628
-0.168704
-1.25692
-5.06121
-3.54295
-1.39757
0.26688
0.259708
-1.83329
-0.380641
-4.82708
-0.1363
-4.93216
-4.94752
-0.0934554
-0.536977
-0.91371
-6.12421
-1.37879
-1.2812
-3.04295
-4.74306
-3.00397
-6.39203
-1.87774
-0.803294
0.282261
-4.57077
-2.26248
0.260423
-0.744822
-0.646828
-2.16199
-1.87147
0.292574
-2.77629
-0.382888
0.289289
0.268942
0.22539
-2.45153
0.237153
-1.33062
-2.38971
-1.00742
-2.33447
-0.220706
-1.71165
-0.240841
-0.829497
-1.13784
-1.67497
0.236425
-1.52587
-1.69677
-1.21173
-0.870441
-0.423818
0.214586
-1.18329
-0.219411
-4.46317
-0.74877
-4.67097
-3.10952
-5.07465
0.242995
-0.863022
-0.523865
-1.74154
-1.83437
-5.62995
-2.69545
-0.600915
-0.320472
-0.88291
-1.95779
-0.0492213
-0.546992
-5.23361
-0.999949
-2.1242
-2.67038
-0.852591
-0.159464
-0.0920802
-0.107552
-0.0201823
0.0978173
-1.88482
-0.224943
-0.0680169
-3.20552
-0.837354
-0.529283
0.179701
-3.12232
-2.56626
-2.62283
-2.26561
-0.600102
-0.741558
-2.43366
-4.37242
-0.83181
0.0132162
-0.128687
-2.81397
-2.06578
-0.169651
-0.92723
-2.53584
-0.34652
-0.502841
-1.32092
-1.3055
-2.29342
0.0554015
-0.147079
-0.899933
-0.00655193
-2.02423
-1.35033
-2.51316
-0.0698233
-0.620223
-3.07897
-5.52013
-0.337568
-0.0816785
-0.0228953
0.223385
-0.19201
-2.84057
-5.68057
-2.22133
-0.0659988
-0.416916
-0.775888
-1.17353
-1.92503
-2.21604
-0.380826
-0.9378
-2.1797
0.0238901
0.261653
-3.40803
0.264232
-3.08599
-3.19298
-0.738388
-3.00697
-5.54299
-2.9637
-3.08186
-0.429513
-0.855641
-2.17938
-2.01191
-3.60834
-1.02724
0.160632
-6.30933
-6.89509
-1.48733
-0.761703
-0.0420036
-1.55556
-1.94163
-0.943476
-0.469793
-5.621
-1.19405
-0.587811
-0.396166
-2.0676
0.207531
-3.00577
0.28978
-1.57254
-0.173505
-1.83617
-1.05614
-0.91947
-1.06814
-1.94511
-1.37917
-0.160817
-2.12612
-0.928865
-1.05756
-0.891321
0.214542
-1.00127
-1.7696
-2.57836
-2.89332
-0.391211
0.196873
-1.2504
-3.43644
-3.0384
-6.65923
-1.66598
-1.02669
-2.75515
-0.681581
-7.04352
-0.302021
0.266456
-5.08589
-5.14049
-5.12861
-0.606893
0.260427
-0.239541
-6.53357
-1.19008
-0.576829
-0.01318
0.0521514
-0.0661969
-1.95599
-0.808116
-3.36652
-4.8076
-0.54749
0.291998
-1.90477
-0.855941
-3.19763
-0.867164
-0.215798
0.266818
-1.42362
-0.230588
-1.89555
-0.117221
-5.79862
-1.81926
-1.10408
0.285214
-1.66696
-0.820088
-0.570159
0.146488
-3.02017
-3.89967
-1.8784
-0.196423
-0.646365
-7.55198
-5.49695
-0.57276
-6.76699
-3.35485
-0.319233
-0.79147
-3.19084
-0.599885
-0.458272
0.287996
-0.838656
-1.77467
-0.994004
-1.58642
-7.40771
0.241427
-0.412469
-0.423005
-0.466655
0.139872
-0.283448
-1.96523
-0.652988
-3.48155
-3.74667
-4.28394
-1.40433
-0.361737
-0.597186
-0.26519
-4.15362
-3.79674
-0.636967
-2.70538
-0.459795
-1.01059
-0.513712
-0.966326
-0.413531
0.282101
-0.275041
-6.40997
-0.807852
-0.232016
-0.991564
-4.23156
-0.693648
-0.863875
-0.0319726
-5.23782
-0.852486
-7.40692
0.0503625
0.261438
-0.988706
-5.03051
-2.9518
-7.19879
-0.702796
-4.50254
-0.679503
-0.288962
-6.41894
-6.43449
-0.53081
-7.65911
-7.27722
-0.819272
-7.27779
0.288067
-0.270426
-0.332441
-0.760195
-0.108234
-1.27665
-0.742941
-7.49864
-7.89182
-0.38738
-0.60236
-0.517659
-0.508315
-4.22036
0.252613
-8.10726
-7.60182
-0.651542
0.259964
-4.15931
-0.637115
-2.48172
0.223993
-2.98401
-7.79936
-7.42876
-0.693915
-0.549927
-0.201676
-1.43592
-0.603873
-1.97949
-0.439205
-2.89129
-7.71218
-0.492146
-6.14117
-1.61014
-1.08578
-4.88512
-0.364428
-7.124
-3.95105
-0.134218
-5.66965
-0.731527
-4.07804
-4.52278
-7.98381
-5.72513
-4.3267
-7.7409
-2.87006
-7.79449
-1.64824
0.181474
-0.533374
-1.08416
-0.261444
-0.106914
-3.30264
-0.572387
-2.1061
-4.76081
-5.51936
-2.96256
-2.38902
-1.97326
-0.304252
-5.02294
-0.409309
0.284052
0.231443
-7.06708
-5.66684
-6.30053
-4.37051
-2.96617
-3.41409
-7.01582
0.266122
-0.213196
-5.70802
-3.67867
-3.40919
-2.08021
-0.449088
-8.01341
-0.614422
-0.602916
-0.278655
-7.94847
-0.589375
-0.718653
-3.05059
-1.38073
-0.56012
-6.9182
-2.05676
-0.34888
-0.790246
-7.8207
-0.401835
-5.75781
-0.211147
-2.20074
-6.3599
-1.94156
-0.629765
-0.16427
0.205619
-0.719883
-6.47274
-0.200755
-0.0973791
-4.48272
-3.38362
-0.589802
0.274976
-4.85134
-2.05407
-4.6096
-3.75693
0.281338
-1.87878
-3.2423
-1.82461
-3.89354
0.28342
-0.578002
-0.695768
-2.1433
-0.433548
-0.133699
-0.408586
-1.71863
-0.241446
-2.33123
-2.75236
-1.8881
-3.26913
-3.15824
-0.570551
-0.623643
-3.88736
-0.178614
-2.47967
-6.27711
-3.67707
0.01168
0.209031
-2.92615
-1.84279
-1.88203
-0.614512
-3.60234
0.291156
-0.714969
-1.70024
-4.56403
-0.199948
-4.74626
-0.334431
-0.330674
-2.10101
-0.457819
-4.51327
-1.78518
-1.76005
-0.0938111
-0.107445
-0.222509
-1.76647
-2.89097
-2.77453
-1.966
-2.08081
0.214532
-7.84588
-0.560333
-4.34412
0.267619
-4.98784
-1.97443
-2.35815
0.215791
-6.7333
-0.696006
-2.45866
-0.246363
0.150771
-0.775818
-0.666363
-6.139
-2.71995
-0.466376
-0.88733
-1.52806
-0.419648
0.258807
-0.520493
0.0909446
-6.29254
-3.93504
0.25491
-0.817259
0.264112
-0.700446
-1.37042
-2.858
-6.62249
-7.99145
-7.92982
-8.01545
-7.52624
-6.17335
-0.323953
-1.70906
-0.759282
-6.71876
-2.79426
-3.91098
-2.51577
-6.26394
-2.71916
-2.92137
-1.55576
-3.6291
-6.34646
-2.34837
-6.24846
0.202855
-2.37228
-0.258267
-3.20125
-0.811293
-4.00518
-4.05025
0.159634
-2.8459
-2.25856
-0.0891762
0.278515
0.273049
-4.30497
-5.38924
-4.1792
-2.44878
-3.08436
-6.11954
-5.95307
-3.2526
-0.966033
-0.1824
-0.88562
-2.26965
-4.92306
-2.62209
-4.83681
0.241655
-6.73222
0.284345
-4.89124
-4.07073
-0.174729
-4.7533
-4.41349
-2.99916
-4.16359
-1.39499
-0.849206
-5.96205
-4.19665
0.204255
-0.251781
-5.06395
-5.93542
-4.72541
-2.83802
-1.98647
-2.16515
-4.31535
-4.58342
-1.32643
-1.91077
-1.51762
-1.4033
-4.87123
-0.801982
-0.809859
-4.30236
-0.522238
-1.47196
-6.05495
0.268397
-0.548061
0.00524155
-0.270159
-4.61316
-6.0543
-6.64251
-0.152998
-6.28337
-0.417043
0.269686
-3.35083
-0.343911
-0.880977
-0.566913
-0.203221
-3.70156
-4.45626
-6.83604
-0.256019
-0.496917
0.224103
-5.51944
-1.34472
-5.08439
-6.48396
-4.39515
-3.99829
-0.4099
-2.74136
-5.99176
-1.10019
-6.15922
-3.38497
-0.351754
-2.03595
0.290557
0.293929
-0.462113
-0.944219
-3.47981
-4.39273
-0.383758
-5.52357
-6.14057
-5.50624
-3.51721
-0.476046
-0.40651
-5.35462
-4.36833
-4.59211
-7.20706
-3.46366
-0.286502
-5.69548
-4.54992
-5.6197
-3.50252
0.297036
-2.55712
-5.54199
-1.10195
0.23716
-1.00796
0.261177
0.294402
-1.03476
-7.46697
-2.38439
0.289964
-2.66809
-4.75212
-4.49713
-3.29476
-4.70343
-7.21406
-1.49475
-0.355222
-5.85841
-2.08927
0.292429
-0.376479
-0.595552
-3.62778
-3.52356
-3.86955
-4.79232
-3.62638
-6.82388
0.293284
-5.00098
-2.77275
-2.6116
-7.41472
0.291861
-0.703718
-6.88541
-4.8803
0.120686
-5.05908
-5.72368
-3.77894
-1.65363
-5.65781
-0.321278
-5.14384
-0.94322
-4.91589
-5.90834
-0.0697756
-1.00977
-5.21658
-6.19514
-1.0606
-3.79915
-0.212407
-0.248329
-5.62043
-0.33546
-3.7365
-5.50017
-5.77364
-0.283565
-5.87669
-6.50272
-0.41859
-6.6391
0.279641
-5.81969
-5.87238
-6.00806
-6.02005
-2.44366
-5.1855
-2.23368
0.289141
-2.63755
-2.56422
-0.373044
-6.09925
-6.09718
-5.89007
-5.85458
-4.71069
-2.19643
-0.945427
-5.46567
-5.27013
-5.82124
-6.35421
-6.30587
-6.43467
-5.93733
-6.14889
-6.44204
0.248903
-6.32959
-2.36789
-6.47412
-6.684
-6.20154
-4.93913
-5.15535
-5.04127
-2.43461
-0.974858
-5.24349
-5.51459
-5.3161
-5.19002
-2.4304
-0.859889
-5.41051
-2.98607
-5.03282
0.295723
0.293163
-0.400138
-6.37542
-6.13924
-0.510196
-1.92748
-5.33903
-7.96555
-6.05974
-2.16653
-5.29372
-3.50018
-2.40001
-8.02388
-3.67969
-6.30719
-8.05766
-7.56827
-3.84741
-7.85054
-2.58753
-4.59396
-2.8458
-0.37304
-3.79261
-2.51539
-1.13159
-5.99593
-1.14325
-2.5169
-1.4642
-3.25981
-1.6154
-0.719835
-2.86511
-5.65697
-5.19963
-1.20182
-2.05532
-4.03204
-2.32905
-2.77972
-1.37944
-2.65505
-1.07098
-1.21131
-3.17377
-2.44968
-1.27172
-5.85779
0.294232
-1.05894
-5.07209
0.215769
-1.20318
-1.52726
-3.44385
0.285562
-0.385676
-2.6624
-2.74585
-3.24692
-1.54714
0.289465
-3.90471
-6.41094
-1.11412
-2.38312
-5.73093
0.105805
-1.08471
-1.13699
-0.9807
-0.395636
-3.07112
-1.58136
-0.948242
-3.71818
-3.0574
-0.99164
0.190629
-3.43303
-0.885651
-2.64533
0.28529
-0.869542
-3.6279
-0.486253
-3.81721
-3.98285
0.292288
-6.50145
0.293717
-3.77114
0.2416
-3.70106
-3.15438
-6.3616
-1.37549
-4.16945
-1.06572
-7.08972
-2.21685
-0.745728
-1.88652
-4.12099
-5.14137
-1.0697
-0.583421
-1.45701
-0.702331
-1.2272
-3.32594
-1.09559
-1.21524
-0.745983
0.293097
0.292807
-0.900936
0.156224
-2.348
-6.24162
-6.31708
-5.9069
-0.276257
-3.84405
-0.329219
-2.88034
-0.879051
-5.34508
-1.15947
-0.408521
-1.13096
0.142316
0.288107
-3.52335
-3.32183
-5.34328
-1.69518
-3.11124
-1.17633
-2.83568
-3.78094
-0.764681
-0.724867
-0.760789
-0.747353
-5.25448
0.135922
-0.798258
-0.499193
-3.7429
-1.97342
-0.458254
-1.98953
-0.600431
-5.52375
-2.0355
-0.276863
-1.78788
-0.402169
-0.531032
-2.07779
-0.414058
-1.21963
-2.13921
-0.794135
0.291735
-5.77338
-5.23316
0.288514
-0.654984
-0.344631
-1.92345
-0.664411
-0.800191
-0.880527
-1.26543
-0.426734
-0.686214
0.280979
-1.80347
-4.20491
-0.467461
0.274185
-0.515478
-0.71963
-1.04467
-1.6484
-0.512352
0.283438
-2.15976
-5.70741
-1.73413
-0.516447
-0.522542
-0.287504
-3.2253
0.287117
-0.651784
-0.136242
0.278553
-1.62608
0.272966
-6.34191
-1.69727
-5.11511
-0.619912
-4.15597
-6.86501
0.28988
-0.847211
-0.305672
0.289597
-0.560598
0.271785
-3.42549
-0.0514958
-1.29402
-0.192839
-0.295209
0.270023
-0.501747
0.271386
-0.758314
-0.661222
-0.742824
-3.13522
-0.841237
-0.799031
0.200664
-0.93956
-0.35669
-0.0194766
-0.519415
-1.11297
-6.40412
-0.627837
-0.502987
-0.842987
-0.445934
-3.16263
-0.684112
0.237223
-2.17218
0.281424
-0.916722
-0.324617
-4.07069
-0.752533
-1.12201
-0.746343
-0.620577
-0.481262
0.278565
-2.62423
-1.33973
-0.474372
-0.485485
-0.427848
-0.622223
-1.26365
-0.704677
-7.03932
0.291882
0.277795
-6.66412
-6.09974
-7.20273
-5.57948
0.279864
0.293586
-0.861908
-2.29268
-0.511704
-3.04379
-3.71319
-6.56252
-0.528173
0.247526
-6.96846
-3.44504
-1.1462
-0.954912
-3.82709
-0.540103
-5.00598
-0.605749
-0.4561
-3.42094
0.289098
-7.36
0.295419
-1.97311
-5.66102
-4.05369
-2.2164
-0.741214
-2.00915
-0.82198
-5.70843
0.272048
-0.910718
-2.12183
-2.38808
0.0623739
-2.54571
-3.29435
-0.843486
-7.21562
-1.12831
-1.06193
-2.46227
-0.846291
-0.920652
-2.29668
-2.36349
-2.64952
-1.8549
-0.90215
-1.0083
-0.596765
0.218856
-2.35971
-0.667884
-0.678751
-6.97401
-2.07636
-1.32199
-7.83241
-2.49486
-2.45692
-2.94824
-7.63772
-6.90998
-1.53005
-1.00502
-3.65339
-0.940994
0.28934
-1.2252
-1.38132
-0.875781
0.279259
-1.18237
-1.60345
0.20341
-1.3959
-7.75784
0.281164
-0.556515
-3.96232
-0.445078
-3.15786
-3.959
-0.926967
0.234132
-2.51405
-1.89313
-0.908324
-6.32798
0.295565
-0.616082
-1.13523
-1.60724
0.278232
-0.991013
-7.93623
-1.19325
-0.548771
-1.19092
-1.41581
-0.465496
-1.12206
-0.95567
-0.812363
-1.79877
-1.64639
-3.33048
-2.05165
-3.92717
-6.30546
-4.11563
-4.26469
-1.37044
-4.28623
-1.521
-1.50737
-1.10979
-1.67717
0.277101
-1.74072
-1.12111
0.0463052
-1.14273
-1.1827
-0.852166
-7.71763
-0.384027
0.157911
-2.61264
-2.44331
-7.83013
0.295219
-5.46679
-2.25497
-5.76488
-0.891209
0.282273
-2.28593
-0.887881
-0.523097
0.118759
-0.962533
-0.227152
-1.19398
0.0954751
-1.0278
-4.36531
-4.37346
-4.33992
-2.70612
0.149708
-6.45716
-6.84055
-0.281792
0.00695306
-1.10079
0.168688
-1.28572
-2.85369
0.119004
-2.4469
-1.30143
0.179481
0.14634
-1.43967
0.035598
-5.96414
0.136624
0.170882
-0.0430522
0.247755
0.113576
-2.37818
-1.37242
-1.33301
0.0802788
-1.26962
0.167381
0.181281
-3.84587