<VTKFile type="UnstructuredGrid" version="0.1" byte_order="LittleEndian">
  <UnstructuredGrid>
    <Piece NumberOfPoints="11319" NumberOfCells="22165">
      <Points>
        <DataArray type = "Float64" NumberOfComponents="3" format="ascii">
3.5 2.00105 0.0 
3.5 1.99895 0.0 
0 0 0.0 
12 0 0.0 
0 4 0.0 
12 4 0.0 
1.9851 0.464008 0.0 
6.22603 2.35879 0.0 
12 0.740885 0.0 
12 0.24699 0.0 
3.46822 2.00422 0.0 
3.4492 2.00609 0.0 
9.75011 0.429191 0.0 
5.54505 3.74253 0.0 
3.4284 2.00811 0.0 
4.2924 2.85568 0.0 
3.40943 2.00992 0.0 
2.71733 2.05664 0.0 
3.39055 2.01171 0.0 
10.5646 0.785159 0.0 
3.37064 2.01358 0.0 
5.11172 3.21254 0.0 
3.94143 1.77338 0.0 
3.5313 1.50765 0.0 
3.3441 2.01602 0.0 
4.37145 2.89078 0.0 
3.32932 2.01737 0.0 
3.31416 2.01873 0.0 
3.76105 1.38673 0.0 
3.30101 2.01991 0.0 
6.4956 2.24143 0.0 
5.00984 3.222 0.0 
3.28104 2.02167 0.0 
11.443 2.87979 0.0 
3.26112 2.02341 0.0 
7.27082 2.03327 0.0 
7.00257 2.02554 0.0 
6.05388 3.00065 0.0 
3.23123 2.02597 0.0 
12 0.493959 0.0 
8.28155 1.27045 0.0 
3.21131 2.02765 0.0 
3.20135 2.02848 0.0 
3.18889 2.02951 0.0 
3.17635 2.03053 0.0 
0.759789 2.22952 0.0 
10.2598 1.74827 0.0 
3.16034 2.03183 0.0 
3.15052 2.03262 0.0 
0.628639 2.20506 0.0 
6.56507 2.38493 0.0 
3.13957 2.03349 0.0 
5.60119 0 0.0 
3.1296 2.03426 0.0 
6.21523 1.6837 0.0 
3.12171 2.03487 0.0 
5.38344 1.70511 0.0 
3.11166 2.03562 0.0 
3.37362 3.04114 0.0 
3.10169 2.03635 0.0 
8.08727 1.03907 0.0 
3.0922 2.03704 0.0 
9.87757 2.91797 0.0 
3.08224 2.03774 0.0 
7.9699 1.83369 0.0 
3.07177 2.03847 0.0 
3.05986 2.03927 0.0 
3.04983 2.03993 0.0 
3.23846 2.72682 0.0 
3.03985 2.04058 0.0 
4.30691 0 0.0 
3.02987 2.04121 0.0 
8.66013 2.72876 0.0 
3.0199 2.04182 0.0 
3.00992 2.04242 0.0 
3.18067 2.9914 0.0 
3.00193 2.04289 0.0 
1.776 2.80497 0.0 
6.92709 2.09023 0.0 
2.98711 2.04373 0.0 
3.57551 2.27046 0.0 
2.97747 2.04427 0.0 
8.24797 3.03812 0.0 
2.96958 2.04469 0.0 
3.47062 0 0.0 
2.96201 2.04509 0.0 
2.34485 2.69857 0.0 
2.95043 2.04569 0.0 
9.9963 2.9126 0.0 
2.94005 2.0462 0.0 
2.93089 2.04665 0.0 
2.85101 1.92055 0.0 
2.59045 2.05749 0.0 
2.92007 2.04715 0.0 
9.25464 2.64568 0.0 
2.91208 2.04752 0.0 
4.90901 0.0899404 0.0 
10.8572 2.96282 0.0 
2.8996 2.04807 0.0 
2.8946 2.04828 0.0 
8.13323 0.520161 0.0 
2.88961 2.04847 0.0 
3.08846 1.86764 0.0 
2.88461 2.04866 0.0 
2.88003 2.04882 0.0 
9.82887 3.01507 0.0 
6.64714 2.62571 0.0 
2.87462 2.04899 0.0 
8.39398 0.905561 0.0 
2.86962 2.04914 0.0 
6.52954 2.17864 0.0 
4.50253 2.33115 0.0 
2.85755 2.04945 0.0 
2.86213 2.04934 0.0 
3.70916 2.08801 0.0 
11.0785 1.20913 0.0 
2.85213 2.04957 0.0 
3.48232 3.06973 0.0 
2.84714 2.04967 0.0 
5.0013 2.24195 0.0 
2.84214 2.04975 0.0 
2.83714 2.04983 0.0 
4.07121 1.85031 0.0 
2.7008 2.0473 0.0 
2.83214 2.04989 0.0 
2.82714 2.04994 0.0 
3.75 4 0.0 
2.81965 2.04999 0.0 
2.82215 2.04997 0.0 
5.55983 1.18487 0.0 
3.27945 1.28524 0.0 
2.81215 2.05001 0.0 
2.80472 2.05001 0.0 
2.79507 2.04997 0.0 
2.79965 2.05 0.0 
6.04839 0.10628 0.0 
5.00816 1.52729 0.0 
2.78966 2.04993 0.0 
9.8031 0 0.0 
2.78466 2.04988 0.0 
9.45522 2.67434 0.0 
2.77966 2.04982 0.0 
7.88728 1.90278 0.0 
2.77466 2.04975 0.0 
4.50014 4 0.0 
2.77216 2.04971 0.0 
2.76716 2.04961 0.0 
2.76467 2.04956 0.0 
8.49528 2.50007 0.0 
2.75967 2.04946 0.0 
2.75467 2.04934 0.0 
2.75231 1.15535 0.0 
2.74967 2.0492 0.0 
4.25003 4 0.0 
2.74468 2.04906 0.0 
9.51856 2.75585 0.0 
2.73968 2.04891 0.0 
2.73469 2.04874 0.0 
9.41426 2.76593 0.0 
2.73219 2.04865 0.0 
2.72719 2.04847 0.0 
2.72261 2.04829 0.0 
7.07481 1.96072 0.0 
1.8446 1.0256 0.0 
2.7172 2.04806 0.0 
8.83747 2.67733 0.0 
3.56995 3.04622 0.0 
2.71221 2.04785 0.0 
8.44419 0.813656 0.0 
2.70472 2.0475 0.0 
2.67763 2.04605 0.0 
2.69045 2.04677 0.0 
2.69475 2.047 0.0 
6.62286 2.79864 0.0 
3.00082 0.808187 0.0 
2.68477 2.04646 0.0 
1.85752 1.95358 0.0 
5.22368 1.80939 0.0 
2.67479 2.04588 0.0 
9.04251 2.70224 0.0 
2.66978 2.04558 0.0 
2.6648 2.04526 0.0 
9.48102 3.02398 0.0 
2.65981 2.04494 0.0 
8.79605 3.01706 0.0 
2.65482 2.04461 0.0 
2.38028 1.40227 0.0 
2.64741 2.04409 0.0 
8.98557 2.77888 0.0 
7.99404 0.835602 0.0 
2.63986 2.04355 0.0 
8.28014 0.713082 0.0 
2.63239 2.04298 0.0 
6.46227 3.19377 0.0 
2.62498 2.0424 0.0 
8.23459 1.16471 0.0 
2.62242 2.0422 0.0 
4.99604 0.387904 0.0 
2.61495 2.04158 0.0 
9.08968 2.78231 0.0 
2.60755 2.04095 0.0 
9.42671 3.11439 0.0 
6.67586 2.27382 0.0 
2.60001 2.04028 0.0 
5.25422 2.73436 0.0 
2.58798 2.03916 0.0 
2.59254 2.03959 0.0 
8.7144 3.68899 0.0 
1.84414 0.842906 0.0 
8.97315 2.9414 0.0 
2.58259 2.03864 0.0 
9.42058 2.93769 0.0 
3.68248 0 0.0 
2.57513 2.0379 0.0 
2.57264 2.03764 0.0 
2.57016 2.03735 0.0 
2.56768 2.03702 0.0 
2.56522 2.03662 0.0 
2.56276 2.03616 0.0 
2.56031 2.03565 0.0 
2.55788 2.03508 0.0 
2.55546 2.03446 0.0 
2.55305 2.03379 0.0 
2.55066 2.03307 0.0 
2.54828 2.0323 0.0 
2.54592 2.03148 0.0 
2.54357 2.03062 0.0 
2.54124 2.02971 0.0 
2.53893 2.02876 0.0 
2.53664 2.02777 0.0 
2.53436 2.02674 0.0 
2.5321 2.02567 0.0 
2.52986 2.02456 0.0 
2.52764 2.02342 0.0 
2.52544 2.02224 0.0 
2.52325 2.02103 0.0 
2.52108 2.01978 0.0 
2.51893 2.01851 0.0 
2.5168 2.0172 0.0 
2.51469 2.01587 0.0 
2.51259 2.01451 0.0 
2.51052 2.01312 0.0 
2.50845 2.0117 0.0 
2.50644 2.01022 0.0 
2.50456 2.00858 0.0 
2.50283 2.00678 0.0 
2.50139 2.00474 0.0 
2.50037 2.00246 0.0 
2.5 2 0.0 
2.50037 1.99754 0.0 
2.50139 1.99526 0.0 
2.50283 1.99322 0.0 
2.50456 1.99142 0.0 
2.50644 1.98978 0.0 
2.50845 1.9883 0.0 
2.51052 1.98688 0.0 
2.51259 1.98549 0.0 
2.51469 1.98413 0.0 
2.5168 1.9828 0.0 
2.51893 1.98149 0.0 
2.52108 1.98022 0.0 
2.52325 1.97897 0.0 
2.52544 1.97776 0.0 
2.52764 1.97658 0.0 
2.52986 1.97544 0.0 
2.5321 1.97433 0.0 
2.53436 1.97326 0.0 
2.53664 1.97223 0.0 
2.53893 1.97124 0.0 
2.54124 1.97029 0.0 
2.54357 1.96938 0.0 
2.54592 1.96852 0.0 
2.54828 1.9677 0.0 
2.55066 1.96693 0.0 
2.55305 1.96621 0.0 
2.55546 1.96554 0.0 
2.55788 1.96492 0.0 
2.56031 1.96435 0.0 
2.56276 1.96384 0.0 
2.56522 1.96338 0.0 
2.56768 1.96298 0.0 
2.57016 1.96265 0.0 
2.57264 1.96236 0.0 
2.57513 1.9621 0.0 
2.58259 1.96136 0.0 
1.48474 1.48069 0.0 
2.58998 1.96065 0.0 
3.55442 3.83146 0.0 
2.59503 1.96018 0.0 
2.60001 1.95972 0.0 
6.67934 2.38431 0.0 
2.60499 1.95928 0.0 
2.60997 1.95884 0.0 
4.47616 1.13367 0.0 
2.61495 1.95842 0.0 
2.61993 1.95801 0.0 
5.6662 0.102614 0.0 
2.62491 1.9576 0.0 
2.62989 1.95721 0.0 
6.05757 2.47597 0.0 
2.63488 1.95683 0.0 
2.63986 1.95645 0.0 
2.64485 1.95609 0.0 
4.49088 0.755642 0.0 
2.64983 1.95574 0.0 
2.6623 1.9549 0.0 
2.65482 1.95539 0.0 
2.65981 1.95506 0.0 
8.17613 1.24546 0.0 
8.32922 1.37667 0.0 
2.66729 1.95458 0.0 
11.2956 1.25205 0.0 
2.29704 2.40916 0.0 
2.67228 1.95427 0.0 
2.67727 1.95397 0.0 
8.77818 2.48508 0.0 
2.68475 1.95354 0.0 
12 2.76485 0.0 
2.69217 1.95314 0.0 
11.1454 3.21 0.0 
2.69723 1.95288 0.0 
2.69973 1.95275 0.0 
3.08018 0.950154 0.0 
2.70715 1.95239 0.0 
3.66493 3.19687 0.0 
5.7595 0.517756 0.0 
2.71221 1.95215 0.0 
2.7172 1.95194 0.0 
6.49351 3.12279 0.0 
2.7222 1.95173 0.0 
6.42887 2.27367 0.0 
2.72719 1.95153 0.0 
5.32901 2.82744 0.0 
10.5184 4 0.0 
2.73219 1.95135 0.0 
2.73718 1.95118 0.0 
4.05926 1.64371 0.0 
4 4 0.0 
2.74218 1.95102 0.0 
3.62872 1.98176 0.0 
2.74967 1.9508 0.0 
2.76007 1.95054 0.0 
2.7571 1.9506 0.0 
6.26644 2.54366 0.0 
1.27321 0 0.0 
2.76467 1.95043 0.0 
2.76966 1.95034 0.0 
6.6018 2.00745 0.0 
2.77216 1.95029 0.0 
2.77716 1.95021 0.0 
2.77966 1.95018 0.0 
2.78466 1.95012 0.0 
2.79209 1.95005 0.0 
2.51663 2.44619 0.0 
2.79715 1.95001 0.0 
5.11022 1.87216 0.0 
2.61244 1.43557 0.0 
2.80215 1.94999 0.0 
2.80715 1.94998 0.0 
6.6875 3.20223 0.0 
2.81215 1.94999 0.0 
2.81715 1.95 0.0 
5.28747 0.495855 0.0 
6.537 2.04355 0.0 
7.43009 0.938536 0.0 
2.82215 1.95003 0.0 
2.82714 1.95006 0.0 
2.82964 1.95009 0.0 
2.47983 3.15276 0.0 
2.83707 1.95017 0.0 
2.84464 1.95029 0.0 
2.84964 1.95038 0.0 
2.40954 2.53052 0.0 
2.85463 1.95048 0.0 
4.54367 2.04622 0.0 
5.50177 4 0.0 
2.86213 1.95066 0.0 
2.86713 1.95079 0.0 
6.6039 2.71065 0.0 
2.87212 1.95093 0.0 
2.87712 1.95109 0.0 
11.6154 4 0.0 
2.88211 1.95125 0.0 
10.0268 1.66303 0.0 
2.88711 1.95143 0.0 
5.77752 0.310791 0.0 
2.8921 1.95162 0.0 
12 1.23459 0.0 
2.8971 1.95183 0.0 
1.43621 2.0532 0.0 
2.90417 1.95213 0.0 
2.91208 1.95248 0.0 
2.10772 2.59125 0.0 
2.92207 1.95294 0.0 
5.90874 0.822744 0.0 
2.93157 1.95339 0.0 
1.73985 0 0.0 
2.94154 1.95387 0.0 
2.95152 1.95437 0.0 
7.52058 1.95211 0.0 
2.96201 1.95491 0.0 
4.69006 3.6978 0.0 
2.9715 1.95541 0.0 
8.21919 1.62771 0.0 
2.98147 1.95595 0.0 
0.966707 1.21788 0.0 
2.99145 1.95651 0.0 
5.78225 1.61899 0.0 
3.00193 1.95711 0.0 
3.10025 0.808075 0.0 
3.01143 1.95767 0.0 
9.66195 1.58864 0.0 
3.02139 1.95827 0.0 
2.02127 3.15157 0.0 
3.03137 1.95889 0.0 
3.68685 2.43383 0.0 
3.04135 1.95952 0.0 
7.39927 0.820459 0.0 
3.05132 1.96016 0.0 
3.55431 2.95608 0.0 
3.0618 1.96086 0.0 
6.67764 1.24793 0.0 
3.07177 1.96153 0.0 
0.769062 1.4551 0.0 
3.08126 1.96219 0.0 
3.94569 1.96136 0.0 
3.09172 1.96293 0.0 
3.09837 1.96341 0.0 
10.1159 4 0.0 
2.77904 1.93818 0.0 
3.11166 1.96438 0.0 
3.03279 0.591212 0.0 
3.12114 1.96509 0.0 
3.1311 1.96585 0.0 
6.86748 2.2434 0.0 
3.14156 1.96667 0.0 
4.65169 1.42498 0.0 
3.15104 1.96742 0.0 
8.26271 1.45414 0.0 
6.74833 3.05325 0.0 
3.17146 1.96907 0.0 
6.44021 2.18497 0.0 
3.18336 1.97004 0.0 
3.58987 3.2222 0.0 
3.20135 1.97152 0.0 
3.22072 1.97314 0.0 
4.90433 1.06843 0.0 
2.37906 2.59073 0.0 
3.23123 1.97403 0.0 
2.49238 1.20869 0.0 
3.24555 1.97525 0.0 
8.58402 0.30847 0.0 
3.26112 1.97659 0.0 
2.88082 1.4733 0.0 
2.52184 4 0.0 
3.28104 1.97833 0.0 
10.2203 1.85383 0.0 
1.96766 1.68156 0.0 
3.30038 1.98003 0.0 
4.12111 2.10498 0.0 
8.7656 2.38481 0.0 
3.31787 1.9816 0.0 
8.37508 1.48322 0.0 
3.33233 1.9829 0.0 
1.72448 1.71043 0.0 
8.68938 1.7583 0.0 
3.35073 1.98458 0.0 
1.50522 0 0.0 
3.37064 1.98642 0.0 
1.04781 0 0.0 
1.85135 1.10186 0.0 
3.39055 1.98829 0.0 
2.72647 2.37811 0.0 
10.3114 4 0.0 
3.41483 1.99059 0.0 
6.59792 1.73349 0.0 
3.42937 1.99199 0.0 
[...]
<PointData>
  <DataArray type = "Float64" Name="BLMLevelSetLayer1" format="ascii">
0.121514
0.121514
-3.07817
-8.61037
-3.07817
-8.61037
-1.48411
-2.62789
-8.47108
-8.55716
0.121514
0.121515
-6.32271
-2.56456
0.121514
-1.04394
0.121514
0.112949
0.121514
-7.04658
0.121514
-1.89476
-0.374209
-0.370456
0.121513
-1.1239
0.121514
0.121514
-0.544037
0.121515
-2.88372
-1.82023
0.121514
-7.86994
0.121514
-3.64944
-3.38114
-2.62103
0.121514
-8.51069
-4.71521
0.121514
0.121514
0.121513
0.121514
-1.63453
-6.64291
0.121514
0.121514
-1.76192
-2.9675
0.121513
-2.77862
0.121513
-2.61196
0.121514
-1.78471
0.121514
-0.902147
0.121514
-4.56511
0.121514
-6.32163
0.121514
-4.35144
0.121514
0.121513
0.121513
-0.577517
0.121513
-2.03416
0.121513
-5.08968
0.121513
0.121513
-0.836754
0.121514
-0.958188
-3.30673
0.121512
-0.158276
0.121512
-4.73839
0.121513
-1.86582
0.121514
-0.575107
0.121514
-6.43843
0.121513
0.121515
0.0916596
0.103499
0.121513
-5.66911
0.121514
-2.25117
-7.29829
0.12151
0.12151
-4.74198
0.12151
0.0266893
0.12151
0.121512
-6.28807
-3.08702
0.12151
-4.89311
0.12151
-2.91323
-0.93396
0.12151
0.121514
-0.104999
-7.49802
0.121514
-0.940448
0.121509
-1.39899
0.121514
0.121509
-0.468724
0.121514
0.121514
0.121509
-1.89301
0.12151
0.121514
-2.09335
-0.568893
0.121514
0.12151
0.121511
0.121509
-3.05284
-1.45868
0.12151
-6.49097
0.12151
-5.87165
0.12151
-4.26682
0.12151
-2.11368
0.121514
0.121509
0.12151
-4.89863
0.121509
0.12151
-0.673668
0.12151
-2.01352
0.12151
-5.94419
0.121509
0.12151
-5.842
0.121514
0.121509
0.121515
-3.4535
-1.04788
0.121509
-5.25863
-0.925436
0.121514
-4.96277
0.121511
0.121511
0.121513
0.121511
-3.10159
-1.0257
0.121511
-0.523697
-1.61255
0.121511
-5.46518
0.12151
0.121511
-5.94636
0.121511
-5.27112
0.121511
-0.468303
0.121509
-5.41893
-4.52066
0.12151
-4.82856
0.121514
-3.07186
0.121511
-4.68601
0.121514
-2.07704
0.12151
-5.5225
0.121509
-5.90886
-3.06604
0.12151
-1.77981
0.12151
0.121514
-5.35928
-1.20205
-5.43183
0.121514
-5.87269
-1.88567
0.121504
0.121514
0.121432
0.121397
0.121427
0.121514
0.121432
0.121405
0.121433
0.121514
0.121439
0.121414
0.12144
0.121514
0.121446
0.121424
0.121447
0.121514
0.121453
0.121433
0.121454
0.121514
0.121459
0.121442
0.12146
0.121514
0.121464
0.121445
0.121468
0.121514
0.12116
0.121002
0.12108
0.121514
0.120501
0.120127
0.120501
0.121514
0.12108
0.121002
0.12116
0.121514
0.121468
0.121445
0.121464
0.121514
0.12146
0.121442
0.121459
0.121514
0.121454
0.121433
0.121453
0.121514
0.121447
0.121424
0.121446
0.121514
0.12144
0.121414
0.121439
0.121514
0.121433
0.121405
0.121432
0.121514
0.121427
0.121397
0.121432
0.121514
0.121504
0.121514
-1.01794
0.121511
-1.70558
0.12151
0.12151
-3.08084
0.12151
0.12151
-1.18294
0.12151
0.12151
-2.75747
0.12151
0.121511
-2.47978
0.12151
0.121511
0.121511
-1.46835
0.121511
0.121515
0.12151
0.121511
-4.61493
-4.74763
0.121509
-7.70979
-0.327785
0.121514
0.121509
-5.17881
0.12151
-8.41273
0.121514
-7.61886
0.121509
0.121511
-0.888315
0.12151
-1.08562
-2.58021
0.121514
0.121509
-3.07526
0.121514
-2.82002
0.121509
-1.88552
-7.17602
0.121514
0.121509
-0.541027
-1.93902
0.121514
-0.00834865
0.12151
0.121512
0.121509
-2.69764
-2.219
0.121509
0.12151
-2.98029
0.121514
0.121509
0.12151
0.121509
0.121514
-0.290851
0.121509
-1.49369
-0.399999
0.121514
0.121509
-3.2848
0.121514
0.121509
-2.21394
-2.91579
-3.94912
0.121514
0.121509
0.12151
-0.997336
0.121509
0.121509
0.12151
-0.395529
0.12151
-0.923134
-2.70742
0.121514
0.121508
-3.06247
0.121514
0.121508
-8.23646
0.121514
-6.4139
0.121508
-2.71344
0.121514
-8.41278
0.121509
-0.944763
0.121513
0.121514
-0.583087
0.121514
-2.55906
0.121514
-2.00556
0.121514
0.121514
-3.89934
0.121514
-1.95097
0.121514
-4.61225
0.121514
-1.59882
0.121514
-2.19215
0.121514
-1.03136
0.121514
-6.05409
0.121514
-1.11482
0.121514
-0.349881
0.121514
-3.95195
0.121514
-0.834203
0.121514
-3.14367
0.121514
-1.69307
0.121514
-0.32576
0.121514
0.121513
-6.78975
0.109501
0.121514
-1.24402
0.121514
0.121514
-3.25468
0.121514
-1.16528
0.121514
-4.67225
-3.29298
0.121514
-2.82445
0.121514
-1.10252
0.121514
0.121515
-1.56313
-0.46197
0.121514
-0.636417
0.121513
-5.23619
0.121514
-0.356179
-1.8384
0.121514
-6.60038
-0.497571
0.121514
-0.508236
-5.15805
0.121513
-4.78077
0.121514
-0.705957
-5.07345
0.121514
-2.10388
0.121514
-2.34563
-0.981917
0.121514
-0.207956
-6.97713
0.121513
-2.98776
0.121514
-2.70571
0.121513
-0.656682
-3.20928
0.121514
-0.319897
-1.91266
-0.93809
-2.88678
-2.70455
0.0995233
-0.846796
-0.454011
-0.491283
-1.92674
-2.18697
-5.3698
-1.76765
0.0733339
-1.29836
-2.34034
-2.11917
-2.22719
-3.19586
-4.75236
-0.985075
-4.50891
-0.308754
-0.879051
-0.956463
-7.37772
-7.78784
-3.94974
-0.643839
-5.25991
-0.24897
-0.771139
-6.984
-3.30733
-0.0533095
-0.874508
-3.82193
-6.7413
-0.943608
-8.09907
-1.78798
-8.41397
-1.15067
0.0509491
0.0346763
-1.82962
0.0982104
-8.37853
-8.38049
-8.3672
-1.94625
-2.42843
-0.0191836
0.0842503
-1.16723
-8.44347
-2.33785
-2.86064
-7.58108
-2.79755
-4.48129
-1.07088
-8.46975
-8.50964
-8.55655
-7.88213
-0.586567
-1.72457
-1.21986
-0.904373
-2.47628
-1.47191
-5.99454
-1.90716
-2.50465
-2.53933
-2.95168
-0.749936
-5.13554
-1.12082
-2.87779
-3.98802
-2.01831
-0.417926
-2.93064
-0.367493
-2.11484
-1.83066
-0.446066
-1.8581
-3.69459
-2.80852
-0.659353
-4.65694
-0.70686
-4.4967
-2.23458
-1.82919
-2.8752
-1.84772
0.0601781
-0.677397
-2.92855
-2.42736
-2.70455
-3.83082
-0.670222
-2.37424
-2.53282
-1.87694
-0.66744
-2.88678
-0.52565
0.020997
-2.48507
-2.28027
-5.14218
-2.92855
-2.39187
-2.37987
-2.39187
-6.37795
-2.48853
-2.5706
-2.6727
-2.79272
0.0788832
-5.56537
-0.764012
-1.88709
-4.72466
-1.04135
-7.41396
-5.21941
-1.21329
-3.74291
-2.85202
-2.66339
-1.05488
-4.84885
0.0494161
-2.69435
-1.02846
-2.11289
-5.41694
-2.8644
-4.37192
-2.32339
-0.281105
-7.55585
-1.81187
-2.69649
-0.326687
-3.864
-2.45746
-6.95464
-5.08985
-0.488791
-2.42482
-0.782238
-1.05489
-4.68504
-1.61831
-2.44108
-4.8066
-2.65775
-3.2533
-7.78308
-0.934834
-0.360605
0.119754
-0.188363
-0.0894022
-1.06213
-1.78837
-3.15579
-0.424655
-1.95891
-3.25766
0.0501604
-3.74916
-5.43776
-0.171807
0.0731342
0.0132923
-5.14381
-1.4504
-3.02261
-0.34971
-3.02199
0.0581125
-0.650174
-5.18875
-5.31537
-0.933835
-5.21113
-1.5589
-4.20606
-1.68288
-0.587966
-2.74224
-0.489325
-2.56838
-3.23324
-1.68787
0.103187
0.106673
-4.57406
-3.05086
-3.23056
-3.01238
-4.8463
-2.99576
-3.11494
-0.270537
0.108327
-5.68038
-0.00488187
-5.15151
-4.93397
-3.54979
-0.942145
-1.07107
-4.64494
-4.95036
0.079786
-1.45351
-1.40815
-1.70085
-0.535621
-6.77356
-2.80449
-2.32724
-1.01343
-2.8717
0.092944
-0.759619
0.0696259
-0.877056
-0.989308
-2.82331
0.0371164
-0.54133
-1.7804
-5.38622
-3.70705
-4.8394
-2.74132
-2.77306
-4.95518
-3.43664
-0.215959
0.0480647
-0.221386
-1.52641
-1.20519
-1.53587
-2.67688
-4.99873
-2.42763
-0.780014
-2.68759
-7.77938
-0.96304
-4.50592
-1.67621
-4.81149
-4.83038
-0.402828
-4.89008
-0.497053
-1.60873
-4.61771
-4.54907
-2.93377
-2.86295
-0.745142
-0.648486
-2.3321
0.0478817
-5.03799
-7.24223
-6.61852
-1.20818
-1.42689
-1.16225
-5.92188
-2.82566
-5.53353
-0.276529
-0.960203
-0.709663
-2.52281
-0.208349
0.0450736
-0.188571
-6.65862
-8.34731
0.0841686
-1.13627
0.0455511
-3.28718
-0.00721196
-2.15558
-2.74613
-1.22607
-0.457038
-1.3683
-1.01177
-1.95892
-4.47812
-2.03476
-2.83101
-0.761666
-0.194714
-0.0952246
-1.37879
-3.21721
-0.383585
-0.679092
-0.355926
-1.78215
-4.63439
-0.708241
-1.23652
-2.89079
-0.743213
-0.0125687
-0.550982
-1.31107
-5.61109
-3.12145
-0.0659432
-1.00537
0.0892094
0.0298632
0.077368
-4.41639
-0.833748
-0.298711
-8.14587
-0.693617
-0.608009
-7.63495
-1.37159
-1.56972
-0.290096
-3.07171
-0.26861
-0.228001
-0.314031
-2.45507
-7.56668
-1.8083
-8.02221
-3.52479
-7.85128
-1.91344
-2.09069
-0.447468
-8.0574
-1.56425
-2.5149
-7.80563
-4.3533
-8.1358
-2.43507
-3.38153
-1.42323
-3.18794
-1.25749
-8.02076
-1.95739
-5.02843
-2.24781
0.106818
-6.37752
-3.46495
-0.244653
-3.06318
-1.45759
-1.48937
-0.543998
-3.08448
-0.70278
-6.94884
-0.899599
-8.28753
-5.05511
-8.30423
-0.512459
-2.41678
-0.18494
-0.132745
-0.797095
-4.35017
-1.78949
-0.433203
-3.26612
-0.724223
-0.288671
-0.431622
-0.632137
-4.52418
-0.539799
0.111898
-1.39285
-0.796047
-1.09649
-1.27072
-1.6332
-3.56072
-0.734426
-0.159252
-1.70491
-1.61192
-3.11426
0.0923197
-2.23253
-1.35217
-1.69056
-0.1753
0.0595769
-0.956447
-2.02692
-5.12401
-0.265164
0.104172
-1.4021
-2.13355
-5.10962
-1.1656
-0.753283
-2.06244
-2.45525
-0.362653
-1.75657
-0.00465167
-6.62086
-6.10157
-2.24972
-1.2331
-2.74586
-0.409136
-1.36967
-2.23237
-0.380107
-0.258252
-3.18137
-5.23512
0.109305
-1.64018
0.0620497
-4.96575
-3.77863
-4.91747
-0.00649776
-3.01586
-1.43244
-0.927719
-0.889358
-1.57309
-2.31557
-5.10703
-2.00881
-0.559431
-5.0026
0.0778713
-2.40165
0.0238222
-2.99178
-2.94504
-1.8873
-6.29973
-2.95397
-1.45672
-3.21847
0.107162
-2.32839
-6.56755
-2.05326
-2.65117
-3.85493
-2.61228
-1.31372
-1.36621
-0.388548
-1.17545
-0.377152
-2.04699
-0.887576
-0.0214142
0.0578908
-2.30408
-2.83453
-1.02799
0.0824351
-3.29896
-1.50614
-0.367727
-0.594268
-2.50999
-3.16327
-3.83578
-3.29209
-5.89068
-0.0316536
-1.85049
-1.199
-0.505817
-1.87229
-0.400464
-1.04596
-0.494656
-1.83654
-1.35881
-3.9781
-3.31233
-1.34206
-5.40904
-0.861378
-2.80767
-1.34905
-2.86736
-1.0472
-1.91706
-2.00989
-5.80547
-2.96512
0.0884283
-5.51635
-2.36808
-2.13331
-0.557254
-2.4978
-0.76632
-0.337174
-2.71101
-3.39217
-0.70674
-0.60979
-0.728608
-1.00732
-0.439358
-4.14678
-2.06034
-2.68972
-0.708652
-0.928372
-0.770907
-0.341023
-0.117678
0.0355615
-2.20352
-3.28851
-2.44113
-0.782146
-2.12289
-0.134336
-1.01221
-0.875102
-1.15998
-2.15831
-0.463903
-2.07539
-0.361521
-0.837137
-4.39809
-2.47024
-0.414694
-1.49644
-1.48102
-3.4818
0.0371525
-0.128025
-0.91873
-0.786233
-2.37965
-1.52585
-1.7556
-6.16728
-1.26941
-3.25449
-5.69565
-0.784781
-0.770168
0.00157255
-1.37366
-0.686456
-6.2074
-5.85609
-2.36421
-2.0619
-4.28855
-3.52691
-2.76676
-0.882228
0.0123964
-1.07525
-0.0365697
-0.576177
-0.387912
0.11804
-3.41071
-1.44395
-1.37073
-0.303186
-0.885305
-3.93744
-0.412705
-0.807065
0.105866
-4.59992
-2.3605
-0.15403
-0.793707
-4.0876
-0.751485
-6.61597
-0.281934
-7.07061
-0.864296
0.0832201
-2.00238
-0.28661
-2.11715
-0.809198
-6.03441
-0.989874
-0.599843
-5.87027
-5.10631
-2.24312
-2.32758
-5.0352
-3.06583
-1.74806
0.11251
-1.2
-1.26854
-0.51101
-1.24366
-0.620417
-1.55469
-0.815393
-1.83056
-0.416632
0.0863908
-0.473997
-0.838288
-2.66598
-0.45253
-0.680948
-2.05128
-3.22494
-2.13382
-1.42592
-0.600621
-1.14548
-6.83475
-0.580081
-0.276913
0.0914598
-0.573517
-7.21904
-0.827471
-3.53444
-5.26141
-1.17032
-5.30413
-3.10648
-0.974642
-1.01841
-6.70909
-0.530718
-3.43388
-0.748177
-0.643485
-0.611392
-1.24959
-0.973514
-0.957711
-4.98312
-2.4206
-0.578824
0.0457116
-1.35485
-4.3197
-0.575297
0.114656
-0.627612
-1.59914
-0.345189
-0.776277
-2.53522
-4.95982
-0.533112
-2.88242
-3.52698
-1.84248
-0.859566
-2.30176
-4.61524
-4.07361
-0.623608
-3.94094
-4.67692
-2.28663
-7.7275
-0.453606
0.0324772
-6.94251
-6.19245
-3.36462
-0.686179
-0.920819
-0.757508
0.0790044
0.112074
-1.15991
0.117366
-0.699056
-1.76194
-7.58323
0.111338
-0.777504
-0.439805
-0.850373
-0.78558
-3.66269
-2.14075
-2.95917
-6.71824
-5.64487
-3.97185
-1.57985
-1.04045
-2.14727
0.0910649
-0.54283
-3.41203
-0.516024
-4.54639
-1.13744
-6.1728
-3.87652
-3.28586
-0.742289
-4.40114
-1.52654
-6.58549
-0.457036
-5.41182
-2.16531
-0.725072
-1.90572
-0.913179
-6.59442
-3.27527
-3.71076
-7.58244
-0.617262
-0.802865
-1.16423
0.0606437
-0.622718
-7.37431
0.073684
-1.61061
-2.00392
-3.72763
-0.399701
-1.1894
-2.14899
-7.83463
-7.45274
-3.07153
-7.45331
-0.58659
0.0900788
-0.581213
-0.729782
-2.5436
-0.785177
0.0471637
-7.67416
-8.06734
-4.6559
0.0332817
-4.69783
-1.24577
-2.53607
-4.89105
-8.28278
-7.77734
-0.885981
-0.604995
-1.2909
-1.55075
-3.86845
-0.338284
-0.629559
-7.97488
-7.60428
-0.272889
-3.16168
-0.375442
-1.61144
-0.905504
-1.23034
-2.3702
-0.761092
-7.8877
-0.251348
-6.31669
-0.400042
-3.13796
-5.5578
-2.28756
-7.29952
-4.12657
-0.0266966
-3.83691
-0.336492
-3.04605
0.0968641
-8.15933
-4.39593
-1.95269
-7.91642
-5.36635
-7.97001
-0.995023
-2.98661
0.093459
-1.0043
-3.50102
-0.0754068
-1.95288
-1.88346
-4.03833
-4.93633
-5.69488
-4.06491
-0.79888
-0.583282
0.0872031
-5.19846
-0.877918
-3.00916
-2.24676
-7.2426
-5.84236
-6.47605
-0.552297
-5.55379
-0.0319512
-7.19134
-0.424591
0.115548
-0.709953
-3.03015
-3.67412
-0.737555
-2.03515
-8.18893
-0.735123
-0.639391
-0.339381
-8.12399
-2.20648
-0.335327
-3.22611
-1.55625
-4.53759
-7.09372
-0.886052
-5.00211
-0.270035
-7.99622
-1.73401
0.100701
-0.659761
-0.345274
-1.93174
-2.92791
-0.886468
-3.05974
-2.06056
-1.36869
-6.64826
-0.688171
-3.92497
-5.16479
-2.6935
-2.25805
-3.44013
-2.0517
-2.61743
-1.69703
-3.07087
-2.70296
-0.513509
-2.30502
-1.08093
-5.83715
-0.256866
-3.59135
-2.65814
-0.418102
-3.33505
-2.51484
0.107113
0.116124
-0.516205
-0.353639
0.0774525
-0.633146
-0.701428
-3.49373
-0.978031
-0.752369
-4.06288
-0.535114
-2.28621
-6.45263
-3.85259
-0.696161
-6.44521
-3.84426
0.110997
0.0361882
-0.880754
-4.22359
-6.16574
-2.89426
-4.09623
-4.73955
-1.9422
0.0205913
-3.59483
-0.527263
-0.751386
-1.55254
-4.68879
0.118499
-3.62791
-2.1434
-4.11851
-0.471484
-5.20873
-0.771384
-2.94563
-0.994516
-0.611987
-0.640805
-8.0214
-4.37288
-4.51964
-2.63251
-1.54446
-0.43954
-2.53367
-4.03829
-6.90882
-2.90183
-0.0504328
-0.846598
-4.36801
-0.668344
-2.27349
-6.31452
0.0673725
-0.568105
0.102971
-1.70358
-1.31046
-6.79798
-1.88131
-0.619833
-6.46806
-3.61131
-5.02837
-3.76412
-4.3752
-0.407641
-2.80578
-3.94538
0.115898
-8.16697
-8.10534
-8.19097
-7.70176
-6.34887
-2.08585
-1.19579
-6.13757
-6.89428
-0.893203
-0.435181
-2.52428
0.116288
-0.665548
-1.04633
-1.73128
-6.55238
-6.52198
-0.161736
-1.11366
-1.02753
-2.5478
-0.722858
-1.13984
-0.247868
-4.1807
-1.49871
-2.44804
-3.02142
-2.45473
-3.89026
-6.09438
-4.76051
-5.01136
-0.953961
-1.03063
-2.6243
-1.31095
-1.1244
-3.42041
-4.34587
-4.17316
-4.41777
-2.21308
-1.02804
-0.550153
-4.78766
-4.80193
-4.31111
-6.90774
0.119738
-5.06676
-4.24625
-4.92456
0.119169
-3.18432
-0.741108
-0.58817
0.0398898
0.067705
0.0391425
-2.18331
0.119753
-3.50688
-3.54035
-6.11094
-1.31343
-2.35102
-0.567874
-3.7899
-4.49087
-0.797832
-1.50195
-1.11398
0.113429
-1.57882
-5.47485
-0.367134
-1.25045
-4.47788
-0.460584
-2.91451
0.106391
0.0845401
-2.79191
-4.96922
0.119972
0.110692
-6.22982
-6.81803
-1.26419
-0.668795
-0.64731
-0.0545962
-1.67821
-2.21692
-0.551792
-0.766643
0.117113
-0.344092
-4.63178
-7.01156
-0.322894
-0.445753
0.109577
-5.69496
-3.38905
-0.539028
-1.04483
-4.57067
-2.77634
-1.75688
-0.0865575
-5.31902
-0.499153
-3.55125
-3.99175
-0.0785941
-2.62211
-1.0483
-0.942113
-2.54688
-0.0321525
-1.26918
-0.895663
-2.96101
-1.30505
-6.31609
-5.68176
-2.83875
-1.25299
-0.494831
-3.05242
-1.16845
-4.76763
-7.38258
-5.78908
-1.05254
-5.871
-0.179478
-5.79522
-1.27703
0.121516
-3.96522
-5.71751
-1.18879
-1.18524
-2.54664
-4.67552
-4.76732
-2.3901
-7.64249
0.109614
-1.52479
-0.776781
-0.557885
-1.08373
-2.6979
0.115045
-7.38958
-0.685015
-1.12431
-4.46744
-1.07989
0.119849
0.120431
-1.75759
-3.57593
-2.62022
-0.503944
-2.73413
-5.25321
-6.9994
-4.26422
-3.18428
-0.685684
-0.405302
-7.59024
-0.620011
-2.82174
-7.06093
-4.81586
-0.923451
-5.90116
-0.983788
-1.11621
-5.46905
-5.83333
-0.492734
-5.31936
-4.15905
-1.19276
-6.08386
-1.14092
-1.28857
-5.3921
-4.08019
-2.36452
-0.706562
-0.698801
-0.0465452
-5.79595
-6.17197
-1.13063
-5.85174
-5.94916
-0.849506
-2.54876
-6.67824
0.120777
-6.81462
-5.48802
-5.99521
-6.0479
-6.18358
-6.19557
-1.02926
-1.09958
-2.4092
-0.794037
-0.941386
-6.00231
-0.682026
-6.27477
-6.2727
-6.06559
-6.0301
0.119991
-3.3409
-1.02763
-0.448018
-0.580384
-3.17178
-6.52973
-6.48139
-6.61019
-6.11285
-6.32441
-6.61756
-3.43138
-6.50511
0.0665971
-6.64964
0.115511
-6.37706
-3.3414
-5.71848
-5.21679
-2.61013
-0.18238
-5.41901
-0.588421
-4.00069
-5.36554
-2.59997
-1.12636
-3.44713
-3.26424
-0.942898
-3.2487
-3.58977
-0.452174
-6.55094
-1.17584
-1.66846
-3.0066
-5.51455
-8.14107
-3.60533
-2.34205
-5.46924
-1.87054
-2.68651
-8.1994
-0.0465163
-6.48271
-8.23318
-7.74379
-1.24251
-8.02606
-2.76305
-2.92482
-0.579397
-2.8285
-4.52495
-2.61234
-3.05464
-1.03465
-0.466838
-2.97065
-1.63972
-0.926664
-1.79092
-0.98288
-1.02793
-1.41685
-1.27531
-4.1566
-3.59306
-2.38223
-2.50457
-3.509
-3.3659
0.00907656
-3.59977
-1.06092
-1.30528
-1.25267
-1.03353
-0.00402458
-3.00435
-0.432012
-5.94898
-2.14015
-1.97651
-0.627962
-3.61937
-5.06298
-2.85266
-0.567784
-0.700058
-0.635657
-0.510957
-0.373742
-1.39095
-6.58646
-5.43817
-1.11953
-0.217686
-0.590396
-1.34364
-2.10299
-5.10102
-3.22261
-3.2391
0.110354
-1.57979
-1.04602
-5.3173
-3.36948
-0.838162
-2.72268
-5.69006
-4.24684
-0.999986
-1.06509
-0.857392
-2.26136
-0.944861
-0.886604
0.101244
-3.94673
-5.62035
-1.01447
-0.0712779
-1.42598
-0.844473
-6.53712
-2.99589
-4.34497
-2.32452
-7.26524
0.0974599
0.0196378
-2.06204
-0.695862
-2.50072
-1.33194
-3.4857
-1.46996
-0.503859
-1.08902
-1.65856
-2.19208
-0.00488601
-2.18062
-3.35866
-1.8716
0.106172
-0.74323
-5.24079
-6.41714
-6.4926
-4.86054
0.105539
-4.03758
-0.841339
-1.98591
-1.36712
-5.5206
-0.874481
-0.696065
-1.96162
0.0782805
-3.69798
-0.0328095
-1.03049
-5.5188
0.0975801
-0.0127509
-0.933835
-0.224035
-6.25314
-0.721406
-0.336751
-2.79758
-0.53469
-5.43
-5.18818
-0.10473
-5.06156
-1.27069
-0.906661
-1.19832
-1.788
0.101603
-0.886187
-1.90282
0.105123
0.0935824
-2.09426
-1.99406
-0.694653
-4.4429
-0.703043
-0.746569
-1.06821
-2.97435
-0.0547722
-5.40868
-0.534773
-5.84751
0.10769
-0.0682143
-1.3122
-0.80054
-4.13843
-1.83278
0.0476035
-5.03998
-0.982398
-2.23888
-2.53547
-0.762586
-0.903172
-0.883453
-0.938047
-1.22019
-1.4396
-2.33533
0.109152
-0.830791
-5.88293
-3.37985
-0.494579
-4.82955
-1.51083
-1.49055
-0.227526
-2.69868
-0.703025
-1.7974
0.0395872
0.0513331
-1.26582
-3.64491
-5.29063
-1.00581
0.0297219
-7.04053
-1.08356
-0.64612
0.00893068
-1.77164
-0.799591
-2.45865
-0.828844
-0.125519
0.00214702
-0.0788148
0.0565367
-5.9408
-0.942701
-0.0681001
-0.878113
0.0370733
-1.1163
-2.001
0.0996643
-6.16081
-0.655659
-2.60809
-1.16607
-2.82287
-1.08732
-3.60964
-6.57964
-1.04269
-0.0314107
-4.86659
-0.677272
-0.397436
-0.0610916
0.120539
-1.23304
-1.07437
-1.25419
-0.637144
-3.34408
-3.37357
-0.0949885
-6.22207
0.101826
-0.0179505
0.115463
-4.03687
-0.794425
0.111882
-0.82402
-0.830305
-6.12969
-0.00785649
-0.0967958
-7.21484
-0.770534
-0.243595
-6.83964
-5.43361
-7.37825
-5.755
0.073159
-0.516955
-1.32255
-5.91616
-0.0855225
-4.29305
-0.141025
-6.73804
-1.13617
-2.54841
-7.14398
-0.628884
0.0503427
-1.28274
-0.914952
-1.48837
-5.1815
-5.83969
-3.17941
-6.13742
-0.746903
-7.53552
-3.07582
-2.14863
-5.83654
-0.553373
-0.0461307
-0.733798
-2.18467
-0.805432
-0.303637
-0.911853
-1.04634
-2.29735
-0.675591
-0.409063
-0.0601906
-0.552521
-0.743485
-7.39114
-2.67979
-2.6782
-0.250039
-3.10596
-1.18942
-1.32257
-3.81201
-0.0878035
-2.03042
-0.485035
-4.73511
-3.05911
-0.737324
-4.02427
-0.286228
-1.49749
-7.14953
-1.45906
-1.00508
-8.00793
-1.18057
-2.51173
-1.83125
-7.81324
-7.0855
-0.310593
-1.18054
-0.250036
-1.11651
-0.461029
-1.40072
-1.55684
-0.258822
-3.77705
-1.35789
0.111945
-0.0240056
-1.57142
-7.93336
-1.38043
-0.251783
-0.927193
0.045302
0.120927
-1.7884
-0.348376
-0.556172
-1.11697
-2.46156
0.100393
-6.5035
-1.29779
-0.348684
-1.31075
-1.78276
-1.61159
-0.837838
-8.11175
-4.97767
-3.81549
-4.33054
-0.271448
-0.997178
-1.13137
-0.0678751
-0.666186
-0.0982569
0.0712527
-3.67887
-2.60732
-0.591381
-0.343179
-0.326736
-4.44021
-1.54596
-4.46175
-1.69652
-1.68289
-1.47072
-1.91596
-0.708671
0.0714288
-1.29663
-2.91147
-1.31825
-1.35822
-3.5399
-7.89315
-4.43729
-2.42273
-1.14027
-0.621518
-8.00565
0.000811216
-2.59732
-0.92232
-1.56003
-1.25632
-0.0416919
-2.56831
-0.928784
-1.75409
-5.93864
-4.12172
0.00102537
-4.51557
-4.35766
-2.50366
-4.54083
-4.54898
-4.10251
-2.31261
-0.383989
-1.48958
-7.01607
0.00117577
-0.970359
-1.27631
-1.19365
-1.46124
-5.56518
-1.88005
0.0175421
-1.47695
-1.2356