<VTKFile type="UnstructuredGrid" version="0.1" byte_order="LittleEndian">
  <UnstructuredGrid>
    <Piece NumberOfPoints="9461" NumberOfCells="18450">
      <Points>
        <DataArray type = "Float64" NumberOfComponents="3" format="ascii">
3.5 2.00105 0.0 
3.5 1.99895 0.0 
0 0 0.0 
12 0 0.0 
0 4 0.0 
12 4 0.0 
3.65956 2.90875 0.0 
3.25494 2.03688 0.0 
5.99816 0.528173 0.0 
4.76515 1.91897 0.0 
3.46822 2.00422 0.0 
3.4492 2.00609 0.0 
9.75011 0.429191 0.0 
8.30114 3.14705 0.0 
3.4284 2.00811 0.0 
1.74929 0.816918 0.0 
3.40943 2.00992 0.0 
4.29545 2.8495 0.0 
3.39055 2.01171 0.0 
10.5646 0.785159 0.0 
3.37064 2.01358 0.0 
4.89725 2.24556 0.0 
2.56227 3.10733 0.0 
1.98766 0.466428 0.0 
3.3441 2.01602 0.0 
4.48448 2.70242 0.0 
3.32932 2.01737 0.0 
3.31416 2.01873 0.0 
4.37488 2.8901 0.0 
3.30101 2.01991 0.0 
2.8263 1.93104 0.0 
7.47762 0.753959 0.0 
3.28104 2.02167 0.0 
11.443 2.87979 0.0 
3.26112 2.02341 0.0 
7.27082 2.03327 0.0 
5.84771 0.208518 0.0 
5.02107 1.95013 0.0 
3.23123 2.02597 0.0 
6.49446 2.23798 0.0 
8.28155 1.27045 0.0 
3.21131 2.02765 0.0 
3.20135 2.02848 0.0 
3.18889 2.02951 0.0 
3.17635 2.03053 0.0 
0.759789 2.22952 0.0 
9.26791 1.07968 0.0 
3.16034 2.03183 0.0 
3.15052 2.03262 0.0 
0.628639 2.20506 0.0 
7.536 2.98668 0.0 
3.13957 2.03349 0.0 
7.00262 2.02534 0.0 
3.1296 2.03426 0.0 
3.94158 1.77247 0.0 
3.12171 2.03487 0.0 
10.2382 2.46496 0.0 
3.11166 2.03562 0.0 
12 0.988161 0.0 
3.10169 2.03635 0.0 
8.08727 1.03907 0.0 
3.0922 2.03704 0.0 
9.87757 2.91797 0.0 
3.08224 2.03774 0.0 
6.05081 2.99563 0.0 
3.07177 2.03847 0.0 
3.05986 2.03927 0.0 
3.04983 2.03993 0.0 
9.20368 0.750817 0.0 
3.03985 2.04058 0.0 
4.30691 0 0.0 
3.02987 2.04121 0.0 
8.66013 2.72876 0.0 
3.0199 2.04182 0.0 
3.00992 2.04242 0.0 
5.38337 1.70521 0.0 
3.00193 2.04289 0.0 
3.01289 0.886564 0.0 
6.92709 2.09023 0.0 
2.98711 2.04373 0.0 
3.61659 3.15773 0.0 
2.97747 2.04427 0.0 
8.24797 3.03812 0.0 
2.96958 2.04469 0.0 
3.47062 0 0.0 
2.96201 2.04509 0.0 
8.66118 0.624492 0.0 
2.95043 2.04569 0.0 
9.9963 2.9126 0.0 
2.94005 2.0462 0.0 
2.93089 2.04665 0.0 
5.05023 3.14105 0.0 
6.2157 1.68364 0.0 
2.92007 2.04715 0.0 
9.25464 2.64568 0.0 
2.91208 2.04752 0.0 
4.90901 0.0899404 0.0 
10.8572 2.96282 0.0 
2.8996 2.04807 0.0 
2.8946 2.04828 0.0 
8.13323 0.520161 0.0 
2.88961 2.04847 0.0 
3.23773 2.72424 0.0 
2.88461 2.04866 0.0 
2.88003 2.04882 0.0 
4.75025 4 0.0 
5.23363 0.391629 0.0 
2.87462 2.04899 0.0 
8.13877 0.9569 0.0 
2.86962 2.04914 0.0 
6.52954 2.17864 0.0 
3.58008 2.27 0.0 
2.85755 2.04945 0.0 
2.86213 2.04934 0.0 
3.26898 0.975801 0.0 
11.0785 1.20913 0.0 
2.85213 2.04957 0.0 
2.714 2.05692 0.0 
2.84714 2.04967 0.0 
6.22741 2.35863 0.0 
2.84214 2.04975 0.0 
2.83714 2.04983 0.0 
12 0.741321 0.0 
2.7008 2.0473 0.0 
2.83214 2.04989 0.0 
2.82714 2.04994 0.0 
1.67984 0.884316 0.0 
2.81965 2.04999 0.0 
2.82215 2.04997 0.0 
3.0898 1.8688 0.0 
12 0.24718 0.0 
2.81215 2.05001 0.0 
2.80472 2.05001 0.0 
2.79507 2.04997 0.0 
2.79965 2.05 0.0 
5.55584 1.18487 0.0 
5.47155 2.96527 0.0 
2.78966 2.04993 0.0 
1.67846 2.47198 0.0 
2.78466 2.04988 0.0 
9.45522 2.67434 0.0 
2.77966 2.04982 0.0 
7.88728 1.90278 0.0 
2.77466 2.04975 0.0 
1.781 1.9755 0.0 
2.77216 2.04971 0.0 
2.76716 2.04961 0.0 
2.76467 2.04956 0.0 
8.49528 2.50007 0.0 
2.75967 2.04946 0.0 
2.75467 2.04934 0.0 
3.5344 1.50295 0.0 
2.74967 2.0492 0.0 
7.96273 3.88282 0.0 
2.74468 2.04906 0.0 
9.51856 2.75585 0.0 
2.73968 2.04891 0.0 
2.73469 2.04874 0.0 
9.41426 2.76593 0.0 
2.73219 2.04865 0.0 
2.72719 2.04847 0.0 
2.72261 2.04829 0.0 
6.63012 3.78282 0.0 
5.00775 1.52929 0.0 
2.7172 2.04806 0.0 
8.83747 2.67733 0.0 
3.75899 1.38527 0.0 
2.71221 2.04785 0.0 
3.38059 3.04212 0.0 
2.70472 2.0475 0.0 
2.67763 2.04605 0.0 
2.69045 2.04677 0.0 
2.69475 2.047 0.0 
6.62286 2.79864 0.0 
3.18556 2.99339 0.0 
2.68477 2.04646 0.0 
5.57466 0.609142 0.0 
7.56755 1.10332 0.0 
2.67479 2.04588 0.0 
9.04251 2.70224 0.0 
2.66978 2.04558 0.0 
2.6648 2.04526 0.0 
9.48102 3.02398 0.0 
2.65981 2.04494 0.0 
8.79605 3.01706 0.0 
2.65482 2.04461 0.0 
3.28065 1.28619 0.0 
2.64741 2.04409 0.0 
8.98557 2.77888 0.0 
7.99404 0.835602 0.0 
2.63986 2.04355 0.0 
8.28014 0.713082 0.0 
2.63239 2.04298 0.0 
8.44199 0.812453 0.0 
2.62498 2.0424 0.0 
8.23459 1.16471 0.0 
2.62242 2.0422 0.0 
9.01622 0.212064 0.0 
2.61495 2.04158 0.0 
9.08968 2.78231 0.0 
2.60755 2.04095 0.0 
9.42671 3.11439 0.0 
6.67586 2.27382 0.0 
2.60001 2.04028 0.0 
2.37653 1.3989 0.0 
2.58798 2.03916 0.0 
2.59254 2.03959 0.0 
12 0.494302 0.0 
5.00582 3.21675 0.0 
8.97315 2.9414 0.0 
2.58259 2.03864 0.0 
9.42058 2.93769 0.0 
9.01734 0 0.0 
2.57513 2.0379 0.0 
2.57264 2.03764 0.0 
2.57016 2.03735 0.0 
2.56768 2.03702 0.0 
2.56522 2.03662 0.0 
2.56276 2.03616 0.0 
2.56031 2.03565 0.0 
2.55788 2.03508 0.0 
2.55546 2.03446 0.0 
2.55305 2.03379 0.0 
2.55066 2.03307 0.0 
2.54828 2.0323 0.0 
2.54592 2.03148 0.0 
2.54357 2.03062 0.0 
2.54124 2.02971 0.0 
2.53893 2.02876 0.0 
2.53664 2.02777 0.0 
2.53436 2.02674 0.0 
2.5321 2.02567 0.0 
2.52986 2.02456 0.0 
2.52764 2.02342 0.0 
2.52544 2.02224 0.0 
2.52325 2.02103 0.0 
2.52108 2.01978 0.0 
2.51893 2.01851 0.0 
2.5168 2.0172 0.0 
2.51469 2.01587 0.0 
2.51259 2.01451 0.0 
2.51052 2.01312 0.0 
2.50845 2.0117 0.0 
2.50644 2.01022 0.0 
2.50456 2.00858 0.0 
2.50283 2.00678 0.0 
2.50139 2.00474 0.0 
2.50037 2.00246 0.0 
2.5 2 0.0 
2.50037 1.99754 0.0 
2.50139 1.99526 0.0 
2.50283 1.99322 0.0 
2.50456 1.99142 0.0 
2.50644 1.98978 0.0 
2.50845 1.9883 0.0 
2.51052 1.98688 0.0 
2.51259 1.98549 0.0 
2.51469 1.98413 0.0 
2.5168 1.9828 0.0 
2.51893 1.98149 0.0 
2.52108 1.98022 0.0 
2.52325 1.97897 0.0 
2.52544 1.97776 0.0 
2.52764 1.97658 0.0 
2.52986 1.97544 0.0 
2.5321 1.97433 0.0 
2.53436 1.97326 0.0 
2.53664 1.97223 0.0 
2.53893 1.97124 0.0 
2.54124 1.97029 0.0 
2.54357 1.96938 0.0 
2.54592 1.96852 0.0 
2.54828 1.9677 0.0 
2.55066 1.96693 0.0 
2.55305 1.96621 0.0 
2.55546 1.96554 0.0 
2.55788 1.96492 0.0 
2.56031 1.96435 0.0 
2.56276 1.96384 0.0 
2.56522 1.96338 0.0 
2.56768 1.96298 0.0 
2.57016 1.96265 0.0 
2.57264 1.96236 0.0 
2.57513 1.9621 0.0 
2.58259 1.96136 0.0 
8.72135 1.16377 0.0 
2.58998 1.96065 0.0 
4.9905 2.24015 0.0 
2.59503 1.96018 0.0 
2.60001 1.95972 0.0 
5.25292 2.73355 0.0 
2.60499 1.95928 0.0 
2.60997 1.95884 0.0 
7.9704 1.8341 0.0 
2.61495 1.95842 0.0 
2.61993 1.95801 0.0 
6.67775 2.38383 0.0 
2.62491 1.9576 0.0 
2.62989 1.95721 0.0 
6.05757 2.47597 0.0 
2.63488 1.95683 0.0 
2.63986 1.95645 0.0 
2.64485 1.95609 0.0 
4.49088 0.755642 0.0 
2.64983 1.95574 0.0 
2.6623 1.9549 0.0 
2.65482 1.95539 0.0 
2.65981 1.95506 0.0 
8.17613 1.24546 0.0 
4.07152 1.85359 0.0 
2.66729 1.95458 0.0 
11.2956 1.25205 0.0 
8.33045 1.37709 0.0 
2.67228 1.95427 0.0 
2.67727 1.95397 0.0 
8.77818 2.48508 0.0 
2.68475 1.95354 0.0 
1.85787 1.94567 0.0 
2.69217 1.95314 0.0 
11.1454 3.21 0.0 
2.69723 1.95288 0.0 
2.69973 1.95275 0.0 
3.70092 2.08806 0.0 
2.70715 1.95239 0.0 
2.3525 2.70049 0.0 
5.22691 1.8236 0.0 
2.71221 1.95215 0.0 
2.7172 1.95194 0.0 
6.49351 3.12279 0.0 
2.7222 1.95173 0.0 
6.56426 2.37578 0.0 
2.72719 1.95153 0.0 
7.07431 1.95849 0.0 
10.5184 4 0.0 
2.73219 1.95135 0.0 
2.73718 1.95118 0.0 
2.59196 2.05816 0.0 
3.75 4 0.0 
2.74218 1.95102 0.0 
3.68248 0 0.0 
2.74967 1.9508 0.0 
2.76007 1.95054 0.0 
2.7571 1.9506 0.0 
6.7275 2.71017 0.0 
1.27321 0 0.0 
2.76467 1.95043 0.0 
2.76966 1.95034 0.0 
6.46174 3.18933 0.0 
2.77216 1.95029 0.0 
2.77716 1.95021 0.0 
2.77966 1.95018 0.0 
2.78466 1.95012 0.0 
2.79209 1.95005 0.0 
2.51663 2.44619 0.0 
2.79715 1.95001 0.0 
5.11022 1.87216 0.0 
2.61244 1.43557 0.0 
2.80215 1.94999 0.0 
2.80715 1.94998 0.0 
5.54557 3.74305 0.0 
2.81215 1.94999 0.0 
2.81715 1.95 0.0 
5.32292 2.82708 0.0 
6.537 2.04355 0.0 
4.50006 4 0.0 
2.82215 1.95003 0.0 
2.82714 1.95006 0.0 
2.82964 1.95009 0.0 
6.69382 3.20227 0.0 
2.83707 1.95017 0.0 
2.84464 1.95029 0.0 
2.84964 1.95038 0.0 
6.6006 2.00253 0.0 
2.85463 1.95048 0.0 
4.54367 2.04622 0.0 
4.47741 1.13334 0.0 
2.86213 1.95066 0.0 
2.86713 1.95079 0.0 
4.25001 4 0.0 
2.87212 1.95093 0.0 
2.87712 1.95109 0.0 
1.78261 2.79425 0.0 
2.88211 1.95125 0.0 
2.76828 1.14753 0.0 
2.88711 1.95143 0.0 
2.41588 2.51994 0.0 
2.8921 1.95162 0.0 
4.06213 1.65537 0.0 
2.8971 1.95183 0.0 
12 1.23488 0.0 
2.90417 1.95213 0.0 
2.91208 1.95248 0.0 
12 2.76485 0.0 
2.92207 1.95294 0.0 
6.42539 0.450852 0.0 
2.93157 1.95339 0.0 
1.73985 0 0.0 
2.94154 1.95387 0.0 
2.95152 1.95437 0.0 
7.82697 3.6406 0.0 
2.96201 1.95491 0.0 
2.30275 2.4091 0.0 
2.9715 1.95541 0.0 
11.6154 4 0.0 
2.98147 1.95595 0.0 
0.966707 1.21788 0.0 
2.99145 1.95651 0.0 
7.52077 1.95244 0.0 
3.00193 1.95711 0.0 
6.68477 0.120448 0.0 
3.01143 1.95767 0.0 
4 4 0.0 
3.02139 1.95827 0.0 
3.19588 0.93616 0.0 
3.03137 1.95889 0.0 
6.68896 3.67088 0.0 
3.04135 1.95952 0.0 
4.49687 2.33536 0.0 
3.05132 1.96016 0.0 
6.14529 0.322956 0.0 
3.0618 1.96086 0.0 
6.67764 1.24793 0.0 
3.07177 1.96153 0.0 
0.769062 1.4551 0.0 
3.08126 1.96219 0.0 
6.4278 2.27404 0.0 
3.09172 1.96293 0.0 
3.09837 1.96341 0.0 
10.1159 4 0.0 
1.48408 1.47827 0.0 
3.11166 1.96438 0.0 
3.0791 0.945779 0.0 
3.12114 1.96509 0.0 
3.1311 1.96585 0.0 
6.86748 2.2434 0.0 
3.14156 1.96667 0.0 
6.11643 0.534444 0.0 
3.15104 1.96742 0.0 
5.50122 4 0.0 
2.84791 1.9234 0.0 
3.17146 1.96907 0.0 
6.44021 2.18497 0.0 
3.18336 1.97004 0.0 
6.2654 2.54337 0.0 
3.20135 1.97152 0.0 
3.22072 1.97314 0.0 
9.80265 0 0.0 
3.48761 3.05547 0.0 
3.23123 1.97403 0.0 
2.38071 2.59565 0.0 
3.24555 1.97525 0.0 
8.58402 0.30847 0.0 
3.26112 1.97659 0.0 
5.77845 1.60796 0.0 
2.77872 1.93817 0.0 
3.28104 1.97833 0.0 
7.68385 0.885439 0.0 
2.48948 1.21299 0.0 
3.30038 1.98003 0.0 
8.26583 1.45566 0.0 
5.90837 0.820867 0.0 
3.31787 1.9816 0.0 
5.11098 3.21202 0.0 
3.33233 1.9829 0.0 
8.37767 1.48423 0.0 
8.68938 1.7583 0.0 
3.35073 1.98458 0.0 
1.50522 0 0.0 
3.37064 1.98642 0.0 
1.04781 0 0.0 
3.03283 0.59125 0.0 
3.39055 1.98829 0.0 
8.22608 1.63221 0.0 
10.3114 4 0.0 
3.41483 1.99059 0.0 
6.59792 1.73349 0.0 
3.42937 1.99199 0.0 
[...]
<PointData>
  <DataArray type = "Float64" Name="BLMLevelSetLayer1" format="ascii">
0.162018
0.162018
-3.03767
-8.56987
-3.03767
-8.56987
-0.759602
0.149131
-2.73695
-1.10566
0.162018
0.16202
-6.28221
-4.774
0.162018
-1.23382
0.162019
-1.001
0.162018
-7.00607
0.162018
-1.25647
-0.904588
-1.44045
0.162018
-1.04675
0.162018
0.162019
-1.08531
0.16202
0.143
-4.00589
0.162018
-7.82944
0.162018
-3.60894
-2.7905
-1.35984
0.162018
-2.8418
-4.67471
0.162018
0.162018
0.162018
0.162019
-1.59402
-5.67868
0.162019
0.162019
-1.72141
-3.99259
0.162018
-3.34068
0.162018
-0.334257
0.162019
-6.59217
0.162018
-8.39787
0.162018
-4.5246
0.162019
-6.28113
0.162019
-2.57583
0.162018
0.162018
0.162018
-5.67663
0.162018
-1.99365
0.162018
-5.04917
0.162018
0.162018
-1.74412
0.162018
-0.907528
-3.26623
0.162017
-1.00052
0.162017
-4.69789
0.162017
-1.82531
0.162018
-5.17904
0.162018
-6.39792
0.162018
0.16202
-1.76225
-2.57193
0.162018
-5.62861
0.162018
-2.21066
-7.25778
0.162014
0.162015
-4.70148
0.162015
-0.534383
0.162015
0.162016
-2.19572
-2.20208
0.162015
-4.59235
0.162015
-2.87273
-0.118604
0.162014
0.162018
-0.835893
-7.45752
0.162019
0.153028
0.162013
-2.58873
0.162019
0.162013
-8.43051
0.162019
0.162018
0.162013
-1.21834
0.162015
0.162018
0.0682643
-8.51662
0.162019
0.162015
0.162015
0.162014
-2.04914
-2.03268
0.162015
-0.784301
0.162015
-5.83115
0.162015
-4.22632
0.162015
-0.558637
0.162018
0.162013
0.162015
-4.85812
0.162014
0.162015
-0.334942
0.162015
-4.68122
0.162015
-5.90369
0.162014
0.162015
-5.8015
0.162018
0.162013
0.162019
-3.4397
-1.41719
0.162013
-5.21813
-0.504074
0.162018
-0.863223
0.162015
0.162016
0.162017
0.162015
-3.06108
-0.798596
0.162015
-2.33513
-4.00297
0.162015
-5.42467
0.162015
0.162015
-5.90585
0.162015
-5.23061
0.162015
-0.52754
0.162014
-5.37843
-4.48015
0.162015
-4.78805
0.162018
-4.92041
0.162015
-4.64551
0.162018
-5.6364
0.162015
-5.48199
0.162014
-5.86835
-3.02553
0.162015
-0.432118
0.162015
0.162018
-8.47013
-1.77329
-5.39132
0.162018
-5.83219
-5.70628
0.162008
0.162018
0.161936
0.161902
0.161931
0.162018
0.161936
0.16191
0.161937
0.162018
0.161943
0.161919
0.161944
0.162018
0.16195
0.161928
0.161952
0.162018
0.161957
0.161938
0.161959
0.162018
0.161963
0.161946
0.161965
0.162018
0.161969
0.161949
0.161972
0.162018
0.161664
0.161506
0.161584
0.162018
0.161006
0.160632
0.161006
0.162018
0.161584
0.161506
0.161664
0.162018
0.161972
0.161949
0.161969
0.162018
0.161965
0.161946
0.161963
0.162018
0.161959
0.161938
0.161957
0.162018
0.161952
0.161928
0.16195
0.162018
0.161944
0.161919
0.161943
0.162018
0.161937
0.16191
0.161936
0.162018
0.161931
0.161902
0.161936
0.162018
0.162008
0.162018
-5.1257
0.162015
-1.34754
0.162015
0.162015
-1.73779
0.162015
0.162015
-4.31142
0.162015
0.162015
-3.0387
0.162015
0.162015
-2.43927
0.162015
0.162015
0.162015
-1.42784
0.162015
0.162019
0.162015
0.162015
-4.57443
-0.427698
0.162014
-7.66928
-4.70829
0.162018
0.162014
-5.13831
0.162015
-0.483408
0.162019
-7.57836
0.162014
0.162015
-0.0569323
0.162014
-0.534189
-1.57377
0.162018
0.162013
-3.03476
0.162019
-2.92507
0.162013
-3.41252
-7.13552
0.162018
0.162013
0.143475
-1.8525
0.162018
-1.84517
0.162015
0.162016
0.162013
-3.14246
-2.17849
0.162014
0.162015
-3.0292
0.162018
0.162013
0.162015
0.162014
0.162019
-0.250346
0.162013
-1.45318
-0.359494
0.162018
0.162013
-2.52479
0.162019
0.162014
-1.83932
-2.87528
-2.07314
0.162018
0.162013
0.162015
-3.25022
0.162013
0.162014
0.162015
-2.93859
0.162015
-0.882629
-1.14359
0.162018
0.162013
-1.973
0.162019
0.162013
-0.905326
0.162019
-0.64072
0.162013
-0.343118
0.162019
-0.496801
0.162013
-8.37225
0.162018
0.162018
-8.37223
0.162018
-3.14774
0.162019
-1.96505
0.162019
0.162019
-4.46516
0.162018
-0.284355
0.162019
-8.19595
0.162019
-1.55832
0.162019
-3.85902
0.162018
-3.53549
0.162019
-1.89852
0.162019
-0.869622
0.162019
-3.43767
0.162019
-0.889418
0.162019
-2.96951
0.162018
-3.10317
0.162018
-1.65257
0.162019
-2.77848
0.162018
0.162018
-6.74924
-0.97912
0.162018
-0.852112
0.162019
0.162019
-3.21418
0.162018
-2.83639
0.162018
-2.66653
0.13507
0.162018
-2.78394
0.162018
-2.65606
0.162018
0.162019
-6.45003
-0.88624
0.162018
-0.425684
0.162018
-5.19568
0.162018
-2.14973
0.149995
0.162018
-4.16747
-0.591951
0.162019
-4.63468
-2.51905
0.162018
-1.85335
0.162018
-4.74274
-5.03294
0.162018
-2.06338
0.162018
-2.30512
-1.20348
0.162018
-4.57827
-6.93663
0.162018
-2.94725
0.162019
-0.970733
0.162018
-0.941671
-1.06952
0.162019
-0.993979
-1.87215
-0.905028
-2.84627
-2.66404
-0.457326
-0.806292
-0.469383
-0.89423
-1.88623
-0.450291
-1.79789
0.0321533
-3.2527
-0.545809
-2.29984
-2.07867
-2.18668
0.140238
-4.71185
-1.52065
-4.46841
-2.66521
-0.16914
-3.89999
-7.33721
-7.74733
-3.90923
-3.07008
-2.35195
-1.11803
-0.283472
-6.9435
-3.26682
-0.26223
-0.0159629
-0.951183
-6.70079
-0.903103
-8.05857
-1.73722
-8.37347
-3.15528
-5.8295
-0.410557
-1.78912
-3.78035
-8.33803
-8.33999
-8.3267
-1.90575
-0.859004
-0.664943
-1.25703
-1.12673
-8.40296
0.0906637
-4.79956
-7.54058
-2.38793
-0.313725
-5.11754
-8.42925
-8.46914
-8.51605
-7.84162
-0.843806
-0.97195
-0.539753
-0.619177
-2.43577
-6.67854
0.139522
-1.02792
-1.42773
-2.49883
-0.611722
-0.709431
-1.12811
-2.75673
-3.04669
-1.16541
-1.9778
-3.91097
-1.11004
-1.08502
-2.07434
-1.79016
-1.07447
-1.8176
-3.04953
-2.76801
-2.81969
-4.61644
-3.12724
-0.323582
-2.19407
-1.78869
0.155601
-1.80722
-0.403364
-5.60533
-2.88804
-2.38685
-2.66404
0.0739297
-2.29693
-2.33374
-2.49232
-0.635578
0.11633
-2.84627
-0.485146
-0.203728
-0.985026
-2.23977
-1.69701
-2.88804
-2.35136
-2.33937
-2.35136
-6.33745
-2.44803
-2.5301
-2.63219
-2.75221
-1.06206
-5.52486
-2.89063
-5.10063
-4.44423
0.10126
-7.37346
0.12544
-0.727121
-0.729523
-0.276236
-2.62288
-0.883557
-4.80834
-1.85694
-1.18005
0.0239893
-2.69423
-5.37644
-2.8239
-1.74942
-3.02209
-0.856744
-7.51535
0.119862
-2.65599
-0.614523
-5.95403
-2.41695
-6.91414
-5.17893
-0.448286
-4.69175
-0.311508
-3.71623
-4.64453
-3.19457
-5.49057
-4.58719
-0.730721
-1.04144
-7.74258
-4.01101
-4.33235
-1.58189
-2.61544
0.0911338
-0.791546
-1.74787
-0.286237
-3.9467
-5.05019
-3.21716
-2.84165
-0.150142
-5.39726
-1.92293
-0.623064
-2.38492
-1.83741
-5.10323
-1.77167
-3.21242
-0.0558189
-0.383735
0.0640756
-5.14825
-5.27486
-1.40507
-5.17063
-2.9344
-4.16555
-1.64237
-5.7304
-6.18452
-2.98616
-2.98077
-3.19274
-1.64736
-1.1673
-0.627617
-4.53356
-0.309403
-3.19006
-2.97187
-4.80579
-2.95526
-3.07443
-3.65811
-0.230271
-0.609249
-0.131424
-5.111
-4.89346
-3.50929
-5.59463
-1.01022
-4.60443
-4.90985
0.112262
0.0508645
-0.883341
-3.17314
0.0361423
-3.32457
0.0939729
-4.89759
-3.00923
-2.83119
-3.65948
-6.73306
-5.95304
0.0967656
-0.719089
-0.249416
-3.72295
-2.81301
-1.01755
-0.498029
-2.48679
-4.44475
-2.70082
0.147781
-1.03697
-3.39614
-4.91881
-1.42964
-2.73251
-1.4859
-0.456211
-1.49536
0.111692
-4.95823
-2.38712
-0.739509
-0.924356
-7.73888
-2.5282
-3.82163
-2.6528
-4.80456
-0.997316
-4.45675
-5.40962
0.0923675
0.144224
-4.57721
-4.50857
-2.89327
-1.66508
-4.77659
-2.75526
-2.2916
-4.85246
-4.99749
-7.20173
-0.550835
0.133937
-1.56823
-2.62178
0.078352
-2.77766
-4.89766
-2.78502
0.148051
-0.500835
-0.355749
-1.74647
-0.369926
-2.07355
-0.601333
-8.30681
0.12181
-0.823236
-2.28608
-3.24667
0.159733
-2.11507
-1.66008
-2.82343
-5.25971
-1.32779
-2.68339
-1.91841
-5.92827
-1.99426
-0.174401
-0.92963
0.0323146
-0.413195
-1.82997
-3.1767
-2.79115
-4.22861
-0.315421
-1.74165
-1.33804
-0.338425
-1.19602
-0.978132
0.0869917
0.0872495
-1.16336
-1.51393
-3.91515
-0.897384
-1.27054
-0.451325
-2.86101
-0.236461
-0.637533
-4.43762
0.0874947
-5.21941
-8.10536
-2.48118
-0.70487
-7.59444
0.118268
-1.52921
-0.178126
-1.33605
-4.81502
0.124778
-0.257299
-6.25502
-7.52618
-0.241777
-7.9817
-1.02068
-7.81078
-3.48604
-2.05019
-0.148455
-8.0169
-1.52375
-1.15295
-7.76512
-4.3128
-8.0953
-0.667273
-3.34103
-1.38273
-3.14743
-1.21699
-7.98025
-3.79036
-4.00241
-2.20731
0.0719694
-6.33701
-0.153768
-0.204148
-0.186119
-1.41709
-3.08176
-4.98808
-0.170623
-0.0379465
-6.90834
-3.41712
-8.24703
-5.0146
-8.26373
-0.652176
-2.37628
-0.973336
-0.146672
-0.0868282
-4.30967
0.146761
-3.02023
-3.22561
-0.701145
-1.4483
-2.40926
-4.88402
0.0327964
-2.46602
-1.92116
-6.06503
-0.755542
-1.05599
-1.23022
-1.5927
-1.86328
-0.271237
-0.515238
-2.3924
-1.57141
-3.07375
-3.51534
-2.19203
-1.31166
-1.65006
-6.26529
-0.381849
-0.761531
-0.89578
-5.10925
0.101656
-0.676832
-1.36159
0.129758
-5.06911
-1.12509
-0.0678462
-2.02193
-0.723212
-0.591929
-1.71606
-3.55019
-6.58036
-6.06107
-0.238572
-5.5745
-2.70536
-0.968494
-0.364826
-2.19187
-4.91842
-0.217747
0.132899
-5.19462
-0.515146
-1.59967
-0.569881
-4.92525
-5.17538
-5.08354
-6.01358
-1.11955
-1.39193
-6.32473
-5.37403
-1.53259
0.0360318
-2.97036
-1.96831
0.10076
-4.96209
-0.862618
-5.06718
-3.1406
-0.349625
-4.87757
-5.56185
-6.25923
-1.66425
-1.41622
-3.17797
0.0366144
-1.34789
-6.52705
-2.01276
-2.61066
-2.91468
-0.924896
-0.216135
0.121603
-0.474505
-1.13495
-2.29701
-2.00649
-1.84947
-2.20503
0.0983954
-2.26358
-0.671439
-0.949949
-0.881287
-5.92814
-1.46563
0.0643508
-1.27285
-2.46949
-3.12276
-0.985335
-3.25158
-0.328164
-1.18448
-1.80999
0.00940104
-0.521286
-1.83178
-3.25349
-1.00546
-0.454152
-0.645609
-1.3183
-1.80353
-4.59818
-4.37806
-5.36854
-3.9374
-2.76716
-0.708399
-2.82686
-0.383128
-1.87656
-1.96938
-5.76497
-2.27456
-0.956546
-2.35068
-2.79619
-2.09281
-1.19264
-0.136451
-1.30855
-1.08767
-1.32573
-0.848158
-0.549871
0.144706
-0.331596
-2.57204
-3.73165
-0.695701
-2.01984
-2.92417
-0.348562
0.153238
-0.665056
-2.64851
-2.67041
-0.400012
0.13073
-0.891864
-2.40063
0.0761076
-2.08238
-0.11867
-0.312911
-2.16305
-0.980418
-0.294946
-0.847046
0.123124
-0.321017
-0.571921
-0.0973381
-2.42974
-0.723859
-1.45593
-1.44051
-0.224681
-2.317
-0.787481
-5.40687
-0.331336
-0.834646
-1.48535
-1.7151
-0.955619
-2.3389
-3.21398
-5.65515
-0.425046
-4.08526
-0.297243
-0.915314
-0.400725
-5.05726
-5.81558
-0.373186
-0.514278
-4.24805
-0.503056
-5.13869
-2.03316
0.0223405
-3.48526
-0.786213
-1.14926
0.148192
-0.0784798
-2.11869
-4.35804
-0.753662
-0.262682
0.0533647
-2.72606
-0.684333
-0.532723
-2.77013
-3.81772
-2.31999
-1.33027
-0.725946
0.00767381
-1.03333
-5.29479
-0.0890358
-7.0301
-4.04725
-1.38926
-0.37212
-2.02134
-2.07665
-6.46455
-0.829464
-0.738217
-0.349679
-0.554842
-0.77301
-2.20261
-1.97382
-0.662316
-3.02532
-1.70755
-5.7594
-1.15949
0.121717
0.153255
-1.20316
-0.470674
-1.51419
-1.01372
-0.240531
-4.10891
-0.76635
-0.726012
-6.3245
-6.57518
-5.39292
-0.640443
-0.463965
-3.18443
-2.09331
-1.38542
-6.51757
-0.374131
-6.79424
-0.539577
-2.62534
-1.30357
-0.560294
-7.17854
-2.0094
-3.49394
-5.22091
-1.22524
-5.26363
-0.741908
-0.357103
-0.24242
-6.66859
-0.977505
-2.02848
-0.779944
-0.704587
-0.114259
0.132926
-0.587821
0.137646
-4.94262
-1.40581
-0.603327
-1.95775
-2.81261
-0.661555
-1.32915
-4.27987
-0.793252
-1.55864
-0.430568
-0.540808
-0.841772
-1.31992
-3.39082
-2.84191
0.127604
-1.80198
-6.12677
-0.538838
-1.79064
-4.03311
-1.36378
0.0773357
-3.89917
0.0870239
-7.687
-3.89641
-0.581229
-6.902
-3.48986
-4.48191
-6.60241
-0.737389
-3.31796
-3.07576
-0.935211
-1.1194
-0.409072
-0.716911
-1.72144
-7.54272
-0.784693
-3.88355
-0.879029
-0.809868
-0.745075
-0.311768
-2.10025
-2.91866
-3.61657
0.115981
-3.93135
-1.53935
-5.9939
-0.589274
-0.414274
-2.32371
-0.571871
0.0402915
-0.999949
-1.09693
-1.11202
-3.83602
-3.37065
0.0752269
0.129935
0.14541
-6.54499
-4.9336
-5.37132
-0.500692
-0.684568
-0.912306
-0.872674
-6.55392
-0.866124
-3.67025
-7.54193
-0.826052
-0.468036
-1.12372
-0.947392
-0.582213
-7.3338
-0.637338
-4.63756
-1.96341
-3.68713
-2.11178
-0.535863
0.114178
-7.79412
-7.41224
-3.22738
-7.4128
0.151582
-1.33005
-2.24475
-6.24757
-1.86436
-0.405694
-0.661344
-7.63365
-8.02683
-0.244016
-2.10346
-2.50451
-0.479508
-4.35537
-3.02877
-8.24228
-7.73684
-0.738654
0.157751
-1.50904
-0.354997
0.131004
-0.490002
-0.398987
-7.93437
-7.56377
-0.232384
-0.646819
-2.12683
-1.57094
-0.538775
-1.20492
-2.3297
-0.868358
-7.84719
-4.50444
-6.27618
-1.22296
-3.09745
-0.560647
-1.12977
-7.25902
-4.08606
-0.823121
-3.79641
-5.44601
-3.00554
-4.65779
-8.11882
-0.691797
0.0731537
-7.87592
-3.82769
-7.9295
-0.215368
-0.550515
-0.335822
-0.824743
-1.2091
-0.842563
-1.91111
-2.24693
-3.11545
-4.89582
-5.65438
0.128596
-0.758375
-4.02543
-4.00699
-5.15796
0.102457
-0.696427
-0.587064
-7.20209
-5.80185
-6.43555
-1.83457
-2.41452
0.128624
-7.15084
-0.293512
-0.936037
-0.592006
-4.98806
-2.9716
-1.03239
-1.91261
-8.14843
-0.75102
-3.00432
-0.298876
-8.08348
0.149944
-2.19794
-3.18561
-1.51575
0.156029
-7.05322
-0.845548
-0.291587
0.0837838
-7.95572
-0.705482
-0.0361519
-0.35463
-0.596971
-1.98622
-5.7815
0.152771
0.138016
-6.61812
-1.32819
-6.60776
-0.231254
-0.510953
-4.61774
-2.653
-2.02666
-3.39963
-2.0112
-2.18908
-0.620057
-3.03037
-4.85045
-5.03736
-2.26452
-3.02406
-2.88743
-5.12419
-6.3734
-5.7154
-0.377598
-3.29454
-2.47434
-0.640305
-2.61668
0.0136156
-0.670477
-0.96657
-0.306251
-0.757339
0.118209
-0.476158
-0.472054
-4.02237
0.147616
-2.24571
-6.41212
-3.81208
-5.72532
-2.1161
-5.32492
0.151501
-0.833905
-6.55987
-0.764115
-0.708134
-2.85376
-1.12194
-4.69904
-1.9017
0.155449
0.0756393
0.060483
-2.2292
-0.59517
-4.64828
-5.15602
0.156892
-2.10289
-0.665868
-4.18297
-1.25278
-0.714628
-4.07538
-3.59229
-3.32402
-0.572423
-7.98089
-0.372898
-4.47913
-3.63923
-0.220816
-0.399035
-2.49317
-3.99779
-6.86831
-2.86132
-2.59367
-0.806093
-4.3275
-0.484704
-4.49654
-6.27401
-0.952518
-4.05269
0.0169345
-1.66307
-4.3325
-6.75747
-2.90823
-0.49315
-6.42755
-1.84322
-0.319192
-5.39132
-1.64925
-1.50832
-2.76527
0.109078
-4.35773
-8.12646
-8.06484
-8.15046
-7.66125
-6.30836
-0.671593
-2.23368
-6.09706
-6.85378
-0.422956
-3.71419
-2.48378
0.15641
-0.299653
-1.19131
-1.69077
-3.24441
-6.48148
0.142893
-5.79628
-0.120602
-2.5073
-1.5219
-4.3342
0.156653
-4.1402
-2.04818
-2.40753
-2.98092
-2.41423
-0.532622
-2.66315
-4.72001
-4.90509
-6.07688
-3.55098
-2.5838
-0.208441
-1.45855
-3.3799
-4.30537
-1.27375
-4.37727
-1.27009
-0.98754
-1.58015
-0.843501
-4.97183
-4.2706
-6.86723
-5.7549
-5.02625
-4.20575
-0.37406
-4.88832
-3.14381
-3.91327
-0.547666
-4.95101
0.10821
0.0813321
-2.23361
-0.713706
-0.838738
-3.49984
-6.07043
-2.13379
-2.31051
-1.0205
-0.514461
-4.45036
0.159876
-1.46145
0.142054
-1.09466
-1.53832
-3.80371
-5.43435
-0.629884
-4.43737
-0.420079
-2.87401
-0.322775
-5.39748
-3.74174
-1.07339
0.081383
-4.74818
-6.18932
-6.77753
-1.08323
-1.14909
-1.07523
-2.17049
-2.57746
-0.865825
-1.01599
-5.05564
-0.630166
-0.729562
-4.59128
-6.97105
-0.28239
-1.69153
-0.934717
-5.65445
-0.54195
-4.13304
-1.23007
-4.53017
-3.85258
0.14728
-0.011833
-0.507936
-0.727925
-3.51074
0.150632
-5.84314
-2.58161
0.125574
-0.901608
-2.50638
0.160103
-0.527411
-4.76609
-2.9205
-2.73533
-6.27559
-5.64125
-3.4631
-1.21248
0.0102362
-0.382322
-0.036583
-4.72712
-7.34208
-5.74858
-1.26351
-5.8305
-1.27569
-5.75472
-1.23652
0.162021
-0.700032
-5.67701
-1.14828
-0.0474403
-0.850144
-4.63502
-5.52524
-0.138167
-7.60198
-0.91105
-2.80212
-2.75302
-0.51738
-0.57028
-2.17892
-1.22392
-7.34907
-0.460726
-0.464843
-4.42694
-0.50147
-0.610632
-5.27418
-0.988765
-1.09699
0.158655
0.159021
-5.50546
0.150074
-6.95889
-2.6588
-2.69371
-0.744581
-5.96092
-7.54974
-0.361878
-0.652313
-7.02042
-3.95234
-3.89021
-5.86066
-0.943283
-5.2114
-1.70883
-5.79283
-1.63633
-5.27886
-0.737872
-1.15226
-6.04335
-0.411617
-0.452245
-5.35159
-4.03969
-2.32402
0.155361
0.15749
-1.00076
-5.75544
-0.618172
-3.9279
-0.719819
-5.90866
-1.1288
-2.50826
-6.63773
-0.687034
-6.77411
-5.44751
-5.95471
-6.0074
-6.14307
-6.15507
-0.988755
-2.50654
-2.3687
-4.1186
-0.816911
-5.9618
-4.96086
-6.23427
-6.2322
-6.02509
-5.98959
-1.24132
-3.30039
-6.13145
-1.89162
0.160279
-0.534525
-6.48922
-6.44088
-6.56969
-6.07235
-6.2839
-6.57706
-3.53979
-6.46461
0.161189
-6.60913
-0.664614
-6.33655
-3.30089
-5.67798
-5.17629
-2.56963
-0.30951
-5.37851
-0.750442
-3.96019
-5.32504
-2.55946
-0.646473
-1.05862
-0.655228
-0.667541
-3.2082
-0.891305
-3.40423
-6.51044
-4.92829
0.160292
-6.57802
-5.47405
-8.10057
-3.56482
-2.30155
-5.42873
-3.39469
-2.64601
-8.1589
-2.34746
-6.44221
-8.19268
-7.70328
-1.202
-7.98555
-2.72254
-4.72897
-2.98082
-1.01272
-4.48445
-2.57183
-3.01414
-0.00551584
-1.71626
-0.406843
-1.59921
-0.886159
-1.75041
-1.00969
-1.13471
-1.33108
-5.51703
-0.0113392
-2.88289
-2.34172
-2.46407
-2.91473
-0.90092
-2.79006
-3.32425
-4.95988
-2.7732
-0.613273
0.110389
-0.534569
-0.425699
-1.24256
-1.49203
-0.992893
-0.683811
-0.00470353
-3.57886
-1.93442
-2.81215
-1.03867
-0.144639
-0.403963
-0.939018
-6.01424
-3.46764
-6.54596
-5.98549
-0.536719
-2.97859
-1.21099
-2.10535
-0.982767
-1.07767
-6.16318
-3.19859
-5.90847
0.052585
-0.580987
-5.2768
-1.01145
-1.62409
-1.30344
-1.37568
-5.63925
-0.959482
-0.8817
0.150767
-0.413677
-3.9962
-1.9845
0.150159
-3.90622
0.142118
-5.52335
-1.3509
-1.02557
-1.04165
-6.49662
-2.95538
-4.30447
-0.796738
-7.22473
-0.975295
-1.09826
-2.02154
-0.173383
-2.46022
-6.21871
-1.27437
-0.559789
-0.656259
-1.04852
-4.20637
-2.15158
0.0414726
-5.37609
-3.31815
-1.8311
-2.68265
0.033124
-2.14148
-6.37664
-6.4521
-4.82004
-0.327607
-0.649625
-0.800835
0.138963
-1.32661
-5.48009
-1.07368
-1.3831
-0.902926
-1.92434
-0.849641
-3.65836
-0.697673
-5.4783
-1.29715
-0.596334
-0.89333
-2.28171
-0.65621
-0.829606
-0.78449
-0.819223
-0.494186
-5.38949
-0.559208
-0.992134
0.116629
-1.23019
-0.182028
-0.685347
-2.75776
-0.467483
0.155873
-0.995022
0.142705
-0.839264
-2.20991
-3.18055
0.145947
-4.40239
0.144225
-0.65236
-0.0674708
-1.08829
0.13826
-5.36817
-0.644653
-0.982596
-2.05262
-1.74442
-0.496998
-1.86415
-3.01286
-1.79227
-0.451599
-1.55107
0.147205
0.0161835
-1.13943
0.13498
0.0868381
0.0630245
-0.897542
-1.17969
-0.864473
-2.29483
-0.294317
-1.43037
-5.84243
-1.39803
-0.86924
-4.78904
-1.19574
-2.48975
-3.59277
-2.65818
0.0326821
-1.75689
-0.454662
0.160491
-6.07854
-1.94915
-5.25013
-3.61445
-0.986515
-7.00003
-0.657529
-1.02184
-0.701292
-0.603061
-1.94528
-1.46564
-0.78834
-3.39896
-4.09815
-2.19869
-2.08728
-3.11928
-0.902196
-0.830007
-0.94147
0.0775779
-1.6223
-0.756462
-4.81449
-5.06892
0.0453783
-2.56758
-1.12556
-0.619042
-0.580773
-2.78495
-6.53913
0.147663
-0.0370204
-1.04704
0.0965318
-1.22672
-0.0255481
-0.0153267
-1.19254
-3.55927
-0.195606
-5.42822
0.15415
-5.9003
-5.5762
-0.788079
0.153942
-0.72906
-0.0284567
0.082207
-3.3022
-0.609387
-0.0567891
-0.753421
-1.01493
0.150128
-1.44833
-7.17434
-5.57984
-0.0541919
-6.79914
-5.33876
-7.33774
-5.7145
-0.645563
-0.976742
-1.04366
0.0116247
-0.0226405
0.114684
-0.359742
-6.69753
-1.09566
-1.28125
-7.10347
0.143213
-3.11855
-5.25616
-0.874447
-2.42396
-5.141
0.160998
0.140365
-0.806473
-0.587694
-7.49502
0.0572723
-2.10812
-5.79604
-3.40752
-2.51066
-0.693293
-2.14417
-1.96866
-0.194695
-0.106777
-1.24334
-2.25684
-1.51954
-3.12265
-0.0882369
-0.727854
-0.70298
-7.35063
-2.63929
0.0340343
0.155558
0.07321
-1.14892
-6.15194
-1.00283
0.0927042
-1.98992
-0.0201012
-3.0699
-0.052563
-5.87565
-3.98376
-6.67773
-5.79919
-7.10903
-1.41855
-1.457
-7.96743
0.093859
-4.2527
-0.954842
-7.77273
-7.045
-0.052629
-1.14003
-0.00251924
-1.07601
-0.24257
-1.36021
-1.51634
-0.480559
-3.73654
-1.31739
-0.873233
0.016499
-1.53092
-7.89286
-0.762678
-0.368412
-3.09207
-6.1669
-1.28572
-0.962825
-2.06304
-0.515667
0.161133
-2.42105
-0.20641
-6.46299
-1.25728
-0.0198307
-1.27025
-1.74226
-1.57109
-0.524593
-8.07125
-1.02909
-1.7851
-0.423915
0.028251
-0.956673
-1.00243
-1.09069
-0.625681
-0.516864
-0.798189
-0.308175
0.0866791
-2.86929
-5.09462
-0.549518
-4.3997
-1.50546
-4.42124
-1.65602
-1.64238
-1.33953
-1.87546
-4.91675
-5.14697
-1.25613
-1.84563
-1.27775
-1.31772
-0.637708
-7.85264
0.113254
-2.38223
-0.210974
-0.028945
-7.96514
-0.664468
-2.86788
-1.21771
-2.57709
-1.2775
-0.582074
-1.51821
-0.00418783
-0.881757
-1.09925
-0.445624
-1.7315
-5.22842
-0.274323
-2.46315
-4.50033
-4.50848
-4.47494
-0.889439
-4.06213
-2.49528
-6.97557
-0.06013
-2.52675
-1.2358
-2.27028
-1.42074
0.0426369
-4.08138
-0.889879
-1.43645
-1.15614
-0.343427
-0.758943
-1.19071
-4.83603