<VTKFile type="UnstructuredGrid" version="0.1" byte_order="LittleEndian">
  <UnstructuredGrid>
    <Piece NumberOfPoints="7070" NumberOfCells="13669">
      <Points>
        <DataArray type = "Float64" NumberOfComponents="3" format="ascii">
3.5 2.00105 0.0 
3.5 1.99895 0.0 
0 0 0.0 
12 0 0.0 
0 4 0.0 
12 4 0.0 
6.29197 2.31448 0.0 
4.95609 1.81082 0.0 
2.97433 1.93934 0.0 
2.3504 1.2816 0.0 
3.46822 2.00422 0.0 
3.4492 2.00609 0.0 
9.75011 0.429191 0.0 
8.08099 3.65547 0.0 
3.4284 2.00811 0.0 
3.08807 1.95055 0.0 
3.40943 2.00992 0.0 
3.25838 2.35422 0.0 
3.39055 2.01171 0.0 
10.5646 0.785159 0.0 
3.37064 2.01358 0.0 
1.83704 2.92451 0.0 
4.04851 2.15296 0.0 
8.62299 0 0.0 
3.3441 2.01602 0.0 
5.9717 0.211343 0.0 
3.32932 2.01737 0.0 
3.31416 2.01873 0.0 
3.23597 2.23348 0.0 
3.30101 2.01991 0.0 
3.25768 2.03599 0.0 
2.89174 0.861072 0.0 
3.28104 2.02167 0.0 
11.443 2.87979 0.0 
3.26112 2.02341 0.0 
3.02474 3.10053 0.0 
3.36818 2.26652 0.0 
9.32831 0.970279 0.0 
3.23123 2.02597 0.0 
3.54064 3.09807 0.0 
8.28155 1.27045 0.0 
3.21131 2.02765 0.0 
3.20135 2.02848 0.0 
3.18889 2.02951 0.0 
3.17635 2.03053 0.0 
0.759789 2.22952 0.0 
5.43169 0.91313 0.0 
3.16034 2.03183 0.0 
3.15052 2.03262 0.0 
0.628639 2.20506 0.0 
8.7123 3.68849 0.0 
3.13957 2.03349 0.0 
2.48103 2.13794 0.0 
3.1296 2.03426 0.0 
6.48933 2.22857 0.0 
3.12171 2.03487 0.0 
2.76199 0.842443 0.0 
3.11166 2.03562 0.0 
2.5181 1.97605 0.0 
3.10169 2.03635 0.0 
8.61051 0.933654 0.0 
3.0922 2.03704 0.0 
9.87757 2.91797 0.0 
3.08224 2.03774 0.0 
1.99061 0.467999 0.0 
3.07177 2.03847 0.0 
3.05986 2.03927 0.0 
3.04983 2.03993 0.0 
7.27122 2.0318 0.0 
3.03985 2.04058 0.0 
4.30691 0 0.0 
3.02987 2.04121 0.0 
8.66013 2.72876 0.0 
3.0199 2.04182 0.0 
3.00992 2.04242 0.0 
4.92469 1.87544 0.0 
3.00193 2.04289 0.0 
2.24493 1.09945 0.0 
2.91871 2.08341 0.0 
2.98711 2.04373 0.0 
7.17862 1.01418 0.0 
2.97747 2.04427 0.0 
2.88641 1.91733 0.0 
2.96958 2.04469 0.0 
3.47062 0 0.0 
2.96201 2.04509 0.0 
3.09546 2.05186 0.0 
2.95043 2.04569 0.0 
9.9963 2.9126 0.0 
2.94005 2.0462 0.0 
2.93089 2.04665 0.0 
4.29538 2.84959 0.0 
2.24791 2.55131 0.0 
2.92007 2.04715 0.0 
9.25464 2.64568 0.0 
2.91208 2.04752 0.0 
4.90901 0.0899404 0.0 
10.8572 2.96282 0.0 
2.8996 2.04807 0.0 
2.8946 2.04828 0.0 
8.13323 0.520161 0.0 
2.88961 2.04847 0.0 
9.26739 1.08 0.0 
2.88461 2.04866 0.0 
2.88003 2.04882 0.0 
9.20243 0.971048 0.0 
7.82442 3.64073 0.0 
2.87462 2.04899 0.0 
9.81285 1.26755 0.0 
2.86962 2.04914 0.0 
4.76104 0.384533 0.0 
4.89352 2.23968 0.0 
2.85755 2.04945 0.0 
2.86213 2.04934 0.0 
1.99661 2.60002 0.0 
11.0785 1.20913 0.0 
2.85213 2.04957 0.0 
8.49253 0 0.0 
2.84714 2.04967 0.0 
7.53783 2.98381 0.0 
2.84214 2.04975 0.0 
2.83714 2.04983 0.0 
3.98751 2.29354 0.0 
2.7008 2.0473 0.0 
2.83214 2.04989 0.0 
2.82714 2.04994 0.0 
2.76836 2.05294 0.0 
2.81965 2.04999 0.0 
2.82215 2.04997 0.0 
4.80334 2.10985 0.0 
2.3277 2.06866 0.0 
2.81215 2.05001 0.0 
2.80472 2.05001 0.0 
2.79507 2.04997 0.0 
2.79965 2.05 0.0 
5.55584 1.18487 0.0 
8.77879 1.0632 0.0 
2.78966 2.04993 0.0 
5.54906 0.892454 0.0 
2.78466 2.04988 0.0 
9.45522 2.67434 0.0 
2.77966 2.04982 0.0 
2.01396 0.969021 0.0 
2.77466 2.04975 0.0 
3.11153 0.901969 0.0 
2.77216 2.04971 0.0 
2.76716 2.04961 0.0 
2.76467 2.04956 0.0 
3.26672 1.95332 0.0 
2.75967 2.04946 0.0 
2.75467 2.04934 0.0 
6.04906 2.99677 0.0 
2.74967 2.0492 0.0 
8.49499 2.49978 0.0 
2.74468 2.04906 0.0 
9.51856 2.75585 0.0 
2.73968 2.04891 0.0 
2.73469 2.04874 0.0 
9.41426 2.76593 0.0 
2.73219 2.04865 0.0 
2.72719 2.04847 0.0 
2.72261 2.04829 0.0 
3.25845 1.94126 0.0 
6.2485 3.79501 0.0 
2.7172 2.04806 0.0 
8.83747 2.67733 0.0 
5.05266 0.490815 0.0 
2.71221 2.04785 0.0 
2.62856 0.835388 0.0 
2.70472 2.0475 0.0 
2.67763 2.04605 0.0 
2.69045 2.04677 0.0 
2.69475 2.047 0.0 
8.13831 0.956352 0.0 
4.99578 0.38821 0.0 
2.68477 2.04646 0.0 
3.21099 1.75099 0.0 
8.08707 1.03905 0.0 
2.67479 2.04588 0.0 
9.04251 2.70224 0.0 
2.66978 2.04558 0.0 
2.6648 2.04526 0.0 
9.48102 3.02398 0.0 
2.65981 2.04494 0.0 
8.79605 3.01706 0.0 
2.65482 2.04461 0.0 
8.24567 3.03735 0.0 
2.64741 2.04409 0.0 
8.98557 2.77888 0.0 
7.99404 0.835602 0.0 
2.63986 2.04355 0.0 
5.22926 3.62707 0.0 
2.63239 2.04298 0.0 
8.27174 0.700244 0.0 
2.62498 2.0424 0.0 
8.23459 1.16471 0.0 
2.62242 2.0422 0.0 
8.44244 0.812526 0.0 
2.61495 2.04158 0.0 
9.08968 2.78231 0.0 
2.60755 2.04095 0.0 
9.42671 3.11439 0.0 
7.02001 2.11165 0.0 
2.60001 2.04028 0.0 
4.81952 0.486106 0.0 
2.58798 2.03916 0.0 
2.59254 2.03959 0.0 
4.79207 1.92906 0.0 
5.17234 3.51572 0.0 
8.97315 2.9414 0.0 
2.58259 2.03864 0.0 
9.42058 2.93769 0.0 
5.10799 0.593394 0.0 
2.57513 2.0379 0.0 
2.57264 2.03764 0.0 
2.57016 2.03735 0.0 
2.56768 2.03702 0.0 
2.56522 2.03662 0.0 
2.56276 2.03616 0.0 
2.56031 2.03565 0.0 
2.55788 2.03508 0.0 
2.55546 2.03446 0.0 
2.55305 2.03379 0.0 
2.55066 2.03307 0.0 
2.54828 2.0323 0.0 
2.54592 2.03148 0.0 
2.54357 2.03062 0.0 
2.54124 2.02971 0.0 
2.53893 2.02876 0.0 
2.53664 2.02777 0.0 
2.53436 2.02674 0.0 
2.5321 2.02567 0.0 
2.52986 2.02456 0.0 
2.52764 2.02342 0.0 
2.52544 2.02224 0.0 
2.52325 2.02103 0.0 
2.52108 2.01978 0.0 
2.51893 2.01851 0.0 
2.5168 2.0172 0.0 
2.51469 2.01587 0.0 
2.51259 2.01451 0.0 
2.51052 2.01312 0.0 
2.50845 2.0117 0.0 
2.50644 2.01022 0.0 
2.50456 2.00858 0.0 
2.50283 2.00678 0.0 
2.50139 2.00474 0.0 
2.50037 2.00246 0.0 
2.5 2 0.0 
2.50037 1.99754 0.0 
2.50139 1.99526 0.0 
2.50283 1.99322 0.0 
2.50456 1.99142 0.0 
2.50644 1.98978 0.0 
2.50845 1.9883 0.0 
2.51052 1.98688 0.0 
2.51259 1.98549 0.0 
2.51469 1.98413 0.0 
2.5168 1.9828 0.0 
2.51893 1.98149 0.0 
2.52108 1.98022 0.0 
2.52325 1.97897 0.0 
2.52544 1.97776 0.0 
2.52764 1.97658 0.0 
2.52986 1.97544 0.0 
2.5321 1.97433 0.0 
2.53436 1.97326 0.0 
2.53664 1.97223 0.0 
2.53893 1.97124 0.0 
2.54124 1.97029 0.0 
2.54357 1.96938 0.0 
2.54592 1.96852 0.0 
2.54828 1.9677 0.0 
2.55066 1.96693 0.0 
2.55305 1.96621 0.0 
2.55546 1.96554 0.0 
2.55788 1.96492 0.0 
2.56031 1.96435 0.0 
2.56276 1.96384 0.0 
2.56522 1.96338 0.0 
2.56768 1.96298 0.0 
2.57016 1.96265 0.0 
2.57264 1.96236 0.0 
2.57513 1.9621 0.0 
2.58259 1.96136 0.0 
5.37706 1.70935 0.0 
2.58998 1.96065 0.0 
2.70265 2.05767 0.0 
2.59503 1.96018 0.0 
2.60001 1.95972 0.0 
6.22005 2.37044 0.0 
2.60499 1.95928 0.0 
2.60997 1.95884 0.0 
6.91081 2.08293 0.0 
2.61495 1.95842 0.0 
2.61993 1.95801 0.0 
4.98986 2.23313 0.0 
2.62491 1.9576 0.0 
2.62989 1.95721 0.0 
6.98955 2.0142 0.0 
2.63488 1.95683 0.0 
2.63986 1.95645 0.0 
2.64485 1.95609 0.0 
8.89619 0.636694 0.0 
2.64983 1.95574 0.0 
2.6623 1.9549 0.0 
2.65482 1.95539 0.0 
2.65981 1.95506 0.0 
8.17613 1.24546 0.0 
8.34154 0.994029 0.0 
2.66729 1.95458 0.0 
11.2956 1.25205 0.0 
8.33045 1.37709 0.0 
2.67228 1.95427 0.0 
2.67727 1.95397 0.0 
6.22457 1.68412 0.0 
2.68475 1.95354 0.0 
6.53439 2.18344 0.0 
2.69217 1.95314 0.0 
11.1454 3.21 0.0 
2.69723 1.95288 0.0 
2.69973 1.95275 0.0 
5.1041 2.07457 0.0 
2.70715 1.95239 0.0 
7.63755 3.7568 0.0 
4.6453 0.590346 0.0 
2.71221 1.95215 0.0 
2.7172 1.95194 0.0 
5.80085 3.89622 0.0 
2.7222 1.95173 0.0 
4.93646 0.487522 0.0 
2.72719 1.95153 0.0 
4.31223 2.91904 0.0 
3.45556 2.94651 0.0 
2.73219 1.95135 0.0 
2.73718 1.95118 0.0 
1.92698 1.35102 0.0 
4.37834 2.58242 0.0 
2.74218 1.95102 0.0 
3.24279 1.08104 0.0 
2.74967 1.9508 0.0 
2.76007 1.95054 0.0 
2.7571 1.9506 0.0 
5.0377 2.08673 0.0 
1.27321 0 0.0 
2.76467 1.95043 0.0 
2.76966 1.95034 0.0 
6.66397 2.28425 0.0 
2.77216 1.95029 0.0 
2.77716 1.95021 0.0 
2.77966 1.95018 0.0 
2.78466 1.95012 0.0 
2.79209 1.95005 0.0 
5.03873 1.95058 0.0 
2.79715 1.95001 0.0 
4.50508 0.761179 0.0 
5.75048 4 0.0 
2.80215 1.94999 0.0 
2.80715 1.94998 0.0 
4.36165 2.87278 0.0 
2.81215 1.94999 0.0 
2.81715 1.95 0.0 
5.92893 3.70075 0.0 
6.537 2.04355 0.0 
3.66007 2.90876 0.0 
2.82215 1.95003 0.0 
2.82714 1.95006 0.0 
2.82964 1.95009 0.0 
2.90691 2.09913 0.0 
2.83707 1.95017 0.0 
2.84464 1.95029 0.0 
2.84964 1.95038 0.0 
5.79508 3.50702 0.0 
2.85463 1.95048 0.0 
5.01917 1.52083 0.0 
5.09414 1.88439 0.0 
2.86213 1.95066 0.0 
2.86713 1.95079 0.0 
5.46984 2.96172 0.0 
2.87212 1.95093 0.0 
2.87712 1.95109 0.0 
6.34703 0.858983 0.0 
2.88211 1.95125 0.0 
5.11214 3.41311 0.0 
2.88711 1.95143 0.0 
6.7031 3.20393 0.0 
2.8921 1.95162 0.0 
8.77663 0.631853 0.0 
2.8971 1.95183 0.0 
5.24929 1.82803 0.0 
2.90417 1.95213 0.0 
2.91208 1.95248 0.0 
5.14871 1.60688 0.0 
2.92207 1.95294 0.0 
10.5139 4 0.0 
2.93157 1.95339 0.0 
1.73985 0 0.0 
2.94154 1.95387 0.0 
2.95152 1.95437 0.0 
4.5036 2.71481 0.0 
2.96201 1.95491 0.0 
3.00393 0.897449 0.0 
2.9715 1.95541 0.0 
5.86262 3.60344 0.0 
2.98147 1.95595 0.0 
0.966707 1.21788 0.0 
2.99145 1.95651 0.0 
5.25744 2.73845 0.0 
3.00193 1.95711 0.0 
5.33114 2.81472 0.0 
3.01143 1.95767 0.0 
6.49313 3.12303 0.0 
3.02139 1.95827 0.0 
12 0.99153 0.0 
3.03137 1.95889 0.0 
6.58337 2.36823 0.0 
3.04135 1.95952 0.0 
2.37133 1.3749 0.0 
3.05132 1.96016 0.0 
6.68848 2.38189 0.0 
3.0618 1.96086 0.0 
6.05621 3.69807 0.0 
3.07177 1.96153 0.0 
0.769062 1.4551 0.0 
3.08126 1.96219 0.0 
5.99491 3.79911 0.0 
3.09172 1.96293 0.0 
3.09837 1.96341 0.0 
2.41749 2.51215 0.0 
3.76169 1.38515 0.0 
3.11166 1.96438 0.0 
12 1.23739 0.0 
3.12114 1.96509 0.0 
3.1311 1.96585 0.0 
5.41666 3.52492 0.0 
3.14156 1.96667 0.0 
10.1057 4 0.0 
3.15104 1.96742 0.0 
9.13735 0.42749 0.0 
6.43196 2.27175 0.0 
3.17146 1.96907 0.0 
6.59107 2.00719 0.0 
3.18336 1.97004 0.0 
6.42434 2.17873 0.0 
3.20135 1.97152 0.0 
3.22072 1.97314 0.0 
6.86225 2.24295 0.0 
4.80124 2.96827 0.0 
3.23123 1.97403 0.0 
8.95232 0.317983 0.0 
3.24555 1.97525 0.0 
8.58402 0.30847 0.0 
3.26112 1.97659 0.0 
6.05132 2.47649 0.0 
3.12043 1.8943 0.0 
3.28104 1.97833 0.0 
3.68376 0 0.0 
5.4567 0.607376 0.0 
3.30038 1.98003 0.0 
8.26583 1.45566 0.0 
11.6152 4 0.0 
3.31787 1.9816 0.0 
1.65088 0.788825 0.0 
3.33233 1.9829 0.0 
8.37767 1.48423 0.0 
8.68938 1.7583 0.0 
3.35073 1.98458 0.0 
1.50522 0 0.0 
3.37064 1.98642 0.0 
1.04781 0 0.0 
11.7225 0.522286 0.0 
3.39055 1.98829 0.0 
8.22608 1.63221 0.0 
5.47868 3.63281 0.0 
[...]
<PointData>
  <DataArray type = "Float64" Name="BLMLevelSetLayer1" format="ascii">
0.270031
0.270031
-2.92966
-8.46185
-2.92966
-8.46185
-2.53948
-1.19817
0.253832
-0.443944
0.27003
0.270032
-6.1742
-4.60055
0.27003
0.257945
0.270031
-0.0593357
0.270031
-6.89806
0.270031
-0.863109
-0.299127
-5.22913
0.27003
-2.78035
0.270031
0.270031
0.0628544
0.270032
0.257787
-0.819956
0.270031
-7.72142
0.270031
-0.787248
0.0183872
-5.64837
0.270031
-0.825675
-4.5667
0.270031
0.270031
0.27003
0.270031
-1.48601
-1.94592
0.270031
0.270031
-1.6134
-5.20862
0.27003
0.1467
0.27003
-2.72795
0.270031
-0.83785
0.270031
0.264857
0.270031
-4.95033
0.270031
-6.17312
0.270031
-1.32994
0.270031
0.27003
0.27003
-3.50132
0.27003
-1.88564
0.27003
-4.94116
0.27003
0.27003
-1.16
0.270031
-0.649734
0.233874
0.270029
-3.53812
0.270029
0.235973
0.27003
-1.7173
0.270031
0.255008
0.270031
-6.28991
0.27003
0.270032
-0.893007
-0.327411
0.27003
-5.5206
0.270031
-2.10265
-7.14977
0.270027
0.270027
-4.59347
0.270027
-5.57011
0.270027
0.270029
-5.5243
-4.35481
0.270027
-6.08505
0.270027
-1.77852
-1.14378
0.270027
0.270031
-0.509777
-7.3495
0.270031
-5.10781
0.270025
-3.88568
0.270031
0.270025
-0.298493
0.270031
0.270031
0.270025
0.266722
0.270027
0.270031
-1.03784
0.0849551
0.270031
0.270027
0.270028
0.270026
-1.94113
-5.09106
0.270027
-2.0587
0.270027
-5.72313
0.270027
-0.860971
0.270027
-0.789843
0.270031
0.270025
0.270027
0.246363
0.270026
0.270027
-2.4666
0.270027
-4.7498
0.270027
-5.79567
0.270026
0.270027
-5.69348
0.270031
0.270025
0.270032
0.23506
-3.01213
0.270026
-5.11012
-1.8945
0.270031
-0.849526
0.270028
0.270028
0.27003
0.270028
-4.48401
-1.92811
0.270028
0.0494503
-4.4164
0.270028
-5.31666
0.270027
0.270027
-5.79784
0.270027
-5.1226
0.270027
-4.58747
0.270026
-5.27041
-4.37214
0.270027
-2.10364
0.270031
-4.67528
0.270028
-4.5375
0.270031
-4.81281
0.270027
-5.37398
0.270026
-5.76034
-3.25172
0.270027
-1.73741
0.270027
0.270031
-1.02393
-1.98629
-5.28331
0.270031
-5.72418
-1.86567
0.270021
0.270031
0.269949
0.269914
0.269944
0.270031
0.269949
0.269922
0.26995
0.270031
0.269955
0.269931
0.269957
0.270031
0.269963
0.269941
0.269964
0.270031
0.26997
0.26995
0.269971
0.270031
0.269976
0.269959
0.269977
0.270031
0.269981
0.269961
0.269985
0.270031
0.269676
0.269519
0.269596
0.270031
0.269018
0.268644
0.269018
0.270031
0.269596
0.269519
0.269676
0.270031
0.269985
0.269961
0.269981
0.270031
0.269977
0.269959
0.269976
0.270031
0.269971
0.26995
0.26997
0.270031
0.269964
0.269941
0.269963
0.270031
0.269957
0.269931
0.269955
0.270031
0.26995
0.269922
0.269949
0.270031
0.269944
0.269914
0.269949
0.270031
0.270021
0.270031
-1.62924
0.270027
0.259771
0.270027
0.270027
-2.47499
0.270027
0.270027
-3.14176
0.270027
0.270027
-1.2378
0.270027
0.270027
-3.21955
0.270027
0.270027
0.270027
-5.29545
0.270027
0.270032
0.270027
0.270027
-4.46641
-4.6747
0.270026
-7.56127
-4.60028
0.270031
0.270026
-2.47267
0.270027
-2.76984
0.270031
-7.47034
0.270026
0.270028
-1.33576
0.270026
-4.22464
-1.54542
0.270031
0.270026
-2.71084
0.270031
-1.81512
0.270026
-0.955704
-0.666757
0.270031
0.270026
-0.59266
-0.783285
0.270031
-0.620853
0.270027
0.270029
0.270026
-1.27006
-2.07048
0.270026
0.270027
-2.90658
0.270031
0.270025
0.270027
0.270026
0.270031
-1.26946
0.270025
-1.32442
-2.74003
0.270031
0.270025
-0.955678
0.270031
0.270026
-2.69454
-2.76727
-0.651687
0.270031
0.270025
0.270027
0.218695
0.270026
0.270026
0.270027
-2.47502
0.270027
-1.3226
-1.32822
0.270031
0.270025
-1.92158
0.270031
0.270025
-2.79674
0.270031
-1.87308
0.270025
-3.15149
0.270031
-5.18082
0.270026
-1.48759
0.27003
0.270031
-1.42465
0.270031
-7.02313
0.270031
-1.85704
0.270031
0.270031
-0.961503
0.270031
-0.788187
0.270031
-2.58472
0.270031
-1.45031
0.270031
-1.63584
0.270031
-1.73375
0.270031
-2.92648
0.270031
-8.28946
0.270031
-2.83513
0.270031
-0.348576
0.270031
-2.94111
0.270031
-2.79821
0.270031
-1.54456
0.270031
-2.8053
0.270031
0.27003
-0.227167
-0.397225
0.270031
-8.26402
0.270031
0.270031
-2.17859
0.270031
-6.63149
0.270031
-5.58225
-2.6744
0.270031
-2.82104
0.27003
-2.65971
0.270031
0.270031
-3.10091
-1.3513
0.270031
-5.43553
0.27003
-5.08767
0.270031
-2.32521
0.199492
0.270031
-1.73728
-2.13105
0.270031
-4.52666
-8.08773
0.27003
-1.20447
0.270031
-4.63472
-4.92493
0.270031
-1.95537
0.270031
-2.19711
-8.08405
0.270031
-4.47026
-2.29469
0.27003
-7.22704
0.270031
-8.322
0.27003
-0.227844
-8.26419
0.270031
-6.82054
-8.40828
-1.76465
-2.73826
-2.55603
-0.512671
-0.316329
-8.3616
-0.778551
-1.77822
-2.70439
-6.05456
-0.361783
-0.792179
-0.802251
-2.19183
-1.97065
-2.07867
0.245828
-4.60384
-3.00674
-4.36039
-1.74449
-5.75355
-1.9651
-7.2292
-7.63932
-3.80122
-2.04986
-5.5648
-2.04174
-3.65045
-6.83549
-0.136459
-0.423248
-0.368264
-0.752308
-6.59278
-0.786037
-7.95056
-1.00556
-8.26545
-0.337189
-3.15198
-0.439289
-1.68111
-4.34198
-8.23002
-8.23198
-8.21869
-1.79774
-2.55717
-2.84398
-0.793865
-1.86499
-8.29495
-0.765575
-2.63083
-7.43256
-1.7905
-2.55768
-3.29556
-8.32124
-8.36113
-8.40804
-7.73361
-0.166685
-0.893159
-0.764509
-1.05534
-2.32776
0.0821335
-0.790244
-0.690947
-2.92162
-2.39082
-0.759016
-3.17019
-3.66962
-1.69002
-0.354299
-0.847326
-1.86979
-0.753325
-2.9939
-2.27991
-1.96633
-1.68214
-6.33803
-1.70958
0.180137
-2.66
-3.54045
-4.50842
-5.64687
-0.995732
-2.08606
-1.68068
-1.32555
-1.6992
-0.426062
-1.65708
-2.78003
-2.27884
-2.55603
-5.0303
-5.23262
-2.22573
-2.3843
-0.297871
-0.800355
-2.73826
-0.732224
-0.162814
-0.209502
-2.13175
-0.150706
-2.78003
-2.24335
-2.23136
-2.24335
-6.22943
-2.34002
-2.42208
-2.52418
-2.6442
-2.71316
0.248358
-0.693405
-2.40907
-3.66415
-0.411373
-7.26544
-2.1898
-0.305662
-0.0949435
-1.58066
0.226081
0.0126453
-3.06007
-1.74893
-4.99005
-2.60907
-0.960913
-5.26842
-2.64751
-1.09536
-0.964801
-1.00643
-7.40734
-3.75108
-0.774406
-0.354932
-2.54209
0.184621
-6.80612
-1.62515
-0.795788
-4.58374
-2.94092
-0.620775
-4.53652
-0.343015
0.234132
-0.176271
-5.07069
-1.64591
-7.63456
-0.784056
0.251348
0.198872
-4.69922
-1.4802
-0.880824
-1.63985
0.136315
-0.312838
-4.94217
-3.10915
-0.789079
-0.448516
-5.28924
-1.00454
-0.880812
-2.49916
-0.769535
-2.95317
-2.59364
-0.75944
-0.204025
-4.99493
-0.674582
-5.04023
-5.16685
-0.537766
-5.06262
-1.74766
0.0656647
-1.53436
-5.00945
-0.308759
-2.70709
-0.504156
-3.08472
-5.22064
0.263113
-0.675306
-4.42554
-2.87789
-1.66021
-1.6678
-4.69778
-0.528858
-0.852241
-2.06507
-4.82894
-0.227475
-2.87867
-5.00299
-4.78545
-1.81595
-6.27549
-2.96758
-4.49642
-4.80184
-1.66621
0.248099
-2.88942
-0.249204
-2.79108
-1.7561
0.216733
-6.29096
-2.85143
-2.72318
-1.72362
-0.42306
-2.5187
0.055581
-0.551013
-2.73845
-3.06538
-2.27862
-0.212612
-0.50708
-2.70827
-4.33674
0.226814
-0.778597
-2.37409
-3.28813
-4.8108
-2.59815
-5.88921
-1.37789
0.257868
-1.38735
-5.41686
-4.85021
-0.507598
-0.27413
-1.54281
-7.63086
-0.0345712
-1.58338
-0.870709
-4.69655
-2.54845
-4.34874
-2.28084
-0.362921
-1.01177
-4.46919
-4.40055
-1.14558
-0.904576
-4.66858
-6.62505
-2.18358
-4.74445
-4.88947
-7.09372
-0.877957
0.201004
-1.07189
-1.32063
-2.50131
-2.66965
-0.559793
-0.853055
-1.28739
-2.325
0.187427
-0.908908
-2.67539
0.219732
-0.493321
-8.1988
-0.720287
0.210959
-2.64065
-2.80301
-3.14762
-2.00706
0.24429
0.200771
-2.6237
-1.21978
-2.57538
-1.8104
-1.63589
-2.54552
0.252342
-0.925626
-2.45113
-0.25324
0.138426
-3.06869
-3.33152
-0.606698
0.229959
-1.63363
-3.77561
-2.19473
-1.08801
-3.04706
-0.915316
-0.595681
-1.46024
-0.525908
-2.7194
-1.01258
-2.89344
-2.34915
-3.094
-2.76519
0.257419
-2.69436
-1.22828
-3.60465
-7.99735
-1.51746
-0.127827
-7.48643
-0.43256
-1.4212
-0.645058
-1.22804
0.139402
-0.226115
-0.0606041
-0.966663
-7.41817
-5.8446
-7.87369
-3.54713
-7.70277
-5.82618
-1.94218
-0.899476
-7.90889
-1.41574
0.262401
-7.65711
-4.20478
-7.98729
-1.84132
-2.4168
-1.27471
-0.122116
-1.10897
-7.87224
-3.24836
-0.530441
-0.825829
0.20192
-6.229
-0.633823
-1.03379
-0.497864
-1.30907
0.196625
-0.862404
-1.40147
-3.1122
-6.80033
-3.30911
-8.13902
0.12322
-8.15572
-3.11006
-0.344374
-0.55962
-0.721409
-0.186156
-4.20166
-2.37511
-1.25172
-2.90639
-4.90626
-2.26975
-2.09692
-1.15773
-4.3227
0.153989
0.191624
0.243911
-0.404273
0.244069
-1.12221
-1.48469
-3.40095
0.2299
-3.37428
-4.87994
-1.4634
-2.96574
-3.40733
-2.08402
-1.20365
-1.54204
-2.99347
-0.938171
-0.780405
-0.564195
0.173619
-1.33102
0.231885
-1.25358
-0.940829
-4.9611
-1.01708
-0.397011
0.197278
-3.04116
-3.08659
-1.60805
0.14261
-6.47235
-5.95306
-6.31036
-0.934156
-0.195456
-6.14663
-0.940283
-2.08386
-0.552706
0.0410659
-2.36564
-0.120461
-0.407133
-1.49166
-2.29015
-4.81723
-3.57078
-0.629963
-0.126758
0.255178
-1.28392
-5.08821
-0.54221
-1.42458
0.239877
0.0272244
-1.86029
-4.97513
-4.85408
-0.163303
-4.95917
-3.57512
-0.864396
0.214852
-5.97993
-6.15122
0.242272
-1.30821
-3.06996
-4.77006
-3.03097
-6.41903
-1.90475
-2.46949
0.122055
-0.0936138
-2.28948
0.187362
-0.496031
-0.673831
-2.189
-1.89848
-3.63319
-2.8033
-6.51096
-1.23905
0.209156
-1.74614
-2.47854
-1.02684
-1.35762
-0.267683
-0.973614
-2.36147
-0.247709
-0.856286
0.209195
-0.0159462
-1.16484
-1.70198
-0.0425333
-1.55287
-1.72377
-0.243497
-0.897444
-0.450821
-2.54372
-1.21029
-0.772941
-4.49017
-6.0821
-0.255093
-3.13652
-0.889436
-0.0601608
-5.26051
-2.15224
-1.76854
-1.86137
-5.65696
-2.72246
-1.02771
-0.347475
-0.909913
-1.98479
-0.0762244
-0.573995
-0.0456465
-0.371979
-0.150557
-2.69738
-3.14846
-0.631802
-2.09559
-0.100204
0.0689211
-1.04636
-1.91183
-1.03811
0.149591
-2.5893
-0.557044
-0.952953
-2.35502
-2.46396
-1.13209
-2.64983
-2.29262
-0.779418
-0.437528
-2.86614
-0.194368
-6.18622
-1.98062
-0.173679
-2.84097
-0.763539
-0.863511
-0.099022
-2.56284
-0.529123
-0.0335652
-1.34792
-1.3325
-2.32042
-0.942771
-0.753098
-3.03384
-1.20054
-2.05123
-1.37734
-2.54017
-2.90397
-0.647226
-3.10597
-5.54713
-0.364571
-0.108682
-0.0498984
0.196382
-0.219013
-0.0669034
-5.70757
-2.24834
-2.24301
-0.463446
-0.288022
-0.309974
-2.20671
-2.33515
-0.407829
-0.00894082
-0.881792
-5.14257
0.23465
-2.42982
-6.3869
-0.820378
-0.692002
-3.71893
-1.51995
-1.11121
-2.99071
-0.869357
-5.75453
0.179926
-2.20638
-2.03891
0.13406
-1.05424
-0.192618
0.144266
-6.92209
-1.59319
-1.08457
-0.560028
-2.56369
-1.96863
-1.69007
-1.22172
-0.42605
-1.08483
-0.614814
-3.68707
-2.0946
-3.88978
-2.44824
-0.0994066
-1.59954
-1.21863
-1.86317
-1.79588
-0.189261
-1.09514
-5.37985
-1.40617
-2.15496
0.186694
-2.92048
-2.60824
-0.918324
-0.881778
0.240679
-0.892334
0.169548
-4.46113
-0.418214
-3.24416
-1.27741
-0.334845
-3.0654
-6.68623
-0.267731
-1.05369
-2.78215
-0.668678
-7.07052
-3.60618
-2.03821
-5.11289
0.267234
-5.15562
-0.633896
0.233424
-0.602305
-6.56057
-3.38939
0.0251477
-0.205483
0.239556
-5.53202
-1.983
-0.83512
-0.5796
-4.8346
-0.45635
-0.851645
-1.93177
-0.592002
-0.677047
0.120094
-0.242801
0.1167
-1.45062
-0.257591
-1.92255
-0.144224
-6.22214
-1.84627
-1.90215
-2.51294
-1.69396
-0.605526
-2.06346
-0.480982
-0.228573
-3.92668
0.219539
-0.624752
0.260857
-7.57899
-0.631588
-0.230294
-6.79399
-3.38185
-0.346236
-3.55136
-1.11364
-3.78937
-3.01073
-2.9167
-1.01139
-0.222872
-0.720905
-1.61343
-7.43471
0.235358
-0.439472
0.231632
-0.493658
-0.747019
0.0349616
-1.99224
-0.679992
-3.50856
-3.3392
0.236731
-1.43134
-0.291036
-0.624189
-1.91141
-4.18062
-3.82374
-2.73062
-0.725666
-0.486798
0.0186466
-0.540715
-0.993329
-0.440534
0.255098
-0.302044
-6.43698
-0.834855
-0.259019
-1.01857
-4.25856
-3.55149
-0.890878
-1.96706
-5.26482
-6.46329
-7.43392
-6.44591
-0.358375
-1.01571
-2.9777
-0.574288
-7.22579
-0.310272
-4.52955
-0.706507
-0.418161
-0.137002
0.261133
-0.785221
-7.68611
-7.30422
-3.62697
-7.30479
0.153765
-0.297429
-0.71855
-3.57046
-0.164035
-1.30365
-0.769945
-7.52564
-7.91882
-0.467332
0.196768
-0.544662
-0.535318
-4.24736
0.22561
-8.13427
-7.62882
-0.678545
-0.440145
-0.663282
-0.591027
-0.521836
-3.55677
-0.821441
-7.82636
-7.45576
-3.37352
-2.0099
0.215006
-1.46293
-0.630876
-0.0207166
-0.629023
-0.325429
-7.73918
-0.430125
-6.16817
0.258602
-0.801729
-0.391587
-2.98947
-7.15101
-3.97805
-0.757014
-4.01354
0.183315
-2.89753
-4.54978
-8.01081
-2.13488
-3.706
-7.76791
-0.218924
-7.82149
-1.67525
-1.89387
-0.560377
-0.136207
-0.357931
0.25071
-0.470841
-0.59939
-0.656389
-4.78781
-5.54636
-3.16022
-2.41602
-2.00027
-3.89898
-5.04995
-4.66648
0.239118
-0.232575
-7.09408
-5.69384
-6.32754
-4.39751
-2.99317
-0.739518
-7.04282
-0.889627
-3.27361
-0.590692
-0.738287
-0.38456
-2.10721
-2.22753
-8.04041
0.265625
-0.629919
-0.305658
-7.97547
-1.74809
0.255934
-3.0776
-1.40774
-0.293582
-6.9452
-2.08376
-4.88303
-4.21478
-7.84771
-3.78274
-0.596956
-0.23815
0.238572
0.256839
-0.125551
-0.656768
-0.191273
0.178616
-2.9181
-6.49975
-0.72983
-2.7274
-4.50973
-0.169929
-0.616806
-1.85208
-3.50644
-2.08107
-4.63661
-2.80592
-2.79584
-1.90578
-0.436757
-3.92108
0.186043
-2.93237
-0.605005
-0.847039
-2.17031
-0.460551
-1.91523
-3.97338
-3.1325
-0.120821
-2.35823
-2.77936
-3.18749
-3.29613
-3.91013
-0.74077
-0.650647
-3.91436
-0.205618
-2.50668
-6.30411
-3.70407
-0.915324
-1.81283
-2.95315
-1.86979
0.241018
-0.641515
-1.72736
-0.355424
-1.79097
-0.245124
-4.59103
-1.79369
-4.77326
-0.485334
-0.357678
-2.12801
0.125644
-4.54027
0.245851
-0.265535
-2.54553
-0.134448
-2.9074
-3.68737
-2.11887
-0.828402
-1.993
-5.01525
-5.01723
-7.87288
-0.777967
-4.37112
-0.836198
-0.493425
-2.00143
-2.38515
0.188787
-6.7603
-6.711
-2.48566
-0.437694
-5.1114
-4.00313
-0.693366
-6.166
-2.74696
-4.9258
-2.89882
-1.55506
-3.98987
-3.13448
-0.547496
0.0639415
-6.31954
-3.96204
0.227907
-6.64946
-4.09738
-0.727449
-1.39743
-1.73969
-6.16625
-8.01845
-7.95682
-8.04245
-7.55324
-6.20035
-0.280076
-2.80994
-5.98905
-6.74576
-4.22032
-3.93798
-2.9297
0.175631
-2.74617
-4.67378
-1.58276
0.257837
-6.37346
-2.37537
-4.07976
0.175852
-2.39929
0.24145
-4.0773
-6.01876
-4.03218
-0.207681
0.132631
-2.87291
-2.28557
-0.116179
0.251512
-0.995895
-2.64672
-4.61105
-5.13408
-2.47579
-3.83895
-2.86634
-3.27189
-2.30186
-0.875884
0.214595
-0.912623
-4.22437
-0.183703
-6.52844
-4.86381
-0.836883
-6.75922
-0.203042
-4.91824
-4.09774
-0.556427
-4.78031
-3.89163
-3.02617
-4.19059
-1.42199
-0.576126
-3.89208
-6.36891
-0.27211
-1.08751
-6.12675
-5.96242
-2.02578
-2.2025
-1.93565
-0.438453
-4.34235
-5.23618
-1.35343
-3.39097
-1.54462
-1.43031
-0.596088
0.215453
-2.22913
-4.32936
-1.48758
-2.83514
-3.35292
0.263237
0.245231
-0.0217615
-0.297162
-4.64017
-6.08131
-6.66952
-2.15617
-3.20837
0.195312
-2.15151
-2.76546
-0.370914
-0.90798
-5.88559
-0.230224
-0.278798
-4.48327
-6.86304
-0.490658
-0.52392
-1.37065
-5.54644
-0.312482
-0.434267
-0.622712
-4.42216
-4.02529
-0.436903
-0.503222
0.260534
-1.12719
0.266993
-3.41197
-0.378757
-2.06295
-2.1211
-3.52042
-0.418493
-0.971222
-3.48801
-4.39064
-2.90327
0.265058
-6.16758
-5.53324
0.26299
-5.49919
-6.33247
-2.17747
-2.55873
-4.61911
-7.23407
-5.64056
-8.25356
-5.72249
-4.98375
-5.64671
-1.12851
0.270033
-5.90382
-5.56899
-0.82893
-4.26905
-1.03496
0.234174
-5.41723
-1.06176
-7.49397
-2.41139
-4.77719
-2.6951
-0.407424
-4.52413
-4.44288
-4.73043
-7.24106
-0.384827
-1.92074
-4.31892
-4.95791
-4.94738
-3.76859
-5.28806
-2.38845
-0.968509
0.0955316
-5.39744
-2.80552
-6.85088
0.266281
-3.03155
-2.83849
-2.63861
-7.44172
0.264858
-0.730721
-6.91241
-3.33228
-3.97634
-5.75264
-4.73912
-5.21332
-0.351333
-5.68481
-3.25826
-5.17084
-1.22626
-5.03693
-5.93534
-0.0967786
-1.03677
-5.24358
0.26324
-0.276982
-1.23565
-0.23941
-0.545065
-5.64743
-0.362464
-2.58917
-0.445557
-5.80065
-0.310568
-3.9394
-6.52972
-2.64871
-6.6661
0.252637
-5.84669
-5.89939
-6.03506
-6.04705
-0.418054
-1.09823
-2.26068
-0.439624
-5.68522
-1.15717
-0.400047
-6.12626
-6.12419
-5.91707
-5.88158
-0.972453
-2.22343
0.220145
-2.46658
0.262998
-5.84824
-6.38121
-6.33287
-6.46167
-5.96433
-6.17589
-6.46905
0.258374
-6.3566
-2.39489
-6.50112
-1.0039
-6.22854
-3.42722
-0.399904
-5.06828
-2.46161
-3.46311
-5.2705
-5.54159
-5.3431
-5.21702
0.266276
-2.54323
-0.414117
-0.319218
-0.750025
0.26872
-1.01892
-1.29641
-6.40243
-1.40492
-3.67544
-1.16293
-5.36604
-7.99256
-1.22387
-2.19354
-5.32072
-3.82139
-2.42701
-8.05088
-3.45978
-6.33419
-8.08467
-7.59527
-3.28956
-7.87754
-2.61453
-4.62096
-2.87281
-6.02321
-4.37644
-3.97712
-3.68018
-0.548334
0.258627
-2.5439
-1.4912
-3.74581
-1.6424
-6.48416
-2.89211
0.190598
-0.528248
-1.14081
-3.3516
-1.01424
-2.35605
-2.80672
-3.27481
-2.68205
-3.21624
-1.08486
-5.88585
-2.47668
-2.41102
-1.5459
0.267229
0.214727
-5.09909
-0.825577
-1.16368
-4.03516
-3.47085
-5.24708
-1.11754
-2.6894
-2.77285
-1.57317
-2.21485
-1.55706
-0.520544
-6.43794
0.265307
-0.511726
-3.84473
0.078802
-0.712146
0.265964
-4.01039
-3.09037
-3.09058
-1.60837
-0.975245
-2.27596
-2.82652
0.266263
0.163626
-2.66819
-0.912654
-5.53124
-1.09537
-0.896545
-0.773321
-0.357775
-0.624473
0.267245
-0.427174
-3.79821
-4.05755
-2.88344
-2.2396
-5.16854
-3.18138
-6.3886
-1.40249
-4.19645
-1.09272
-7.11672
-4.11831
0.107925
-1.91352
-0.689279
-1.18493
-4.98359
-0.610424
-1.48401
-0.729334
-1.2542
-0.779545
-1.1226
-1.24224
-0.772987
-2.85766
-0.785508
-0.927939
0.129221
-2.375
-6.26863
-6.34408
-0.305576
-0.308752
-0.905721
0.252334
-0.691925
-5.60479
-5.37208
-0.922281
-1.16227
-1.72223
-1.24358
-1.82651
-3.55035
-0.559463
-5.37029
-2.04742
-1.80457
-1.20334
-3.45211
-4.20341
-0.791684
-0.75187
-0.544228
-0.774356
-5.28148
0.108919
-5.80043
-0.498513
-2.00024
-0.426908
-0.304102
-2.01654
-3.44578
0.264955
-1.00972
-0.438921
-1.81488
-3.12273
-3.01974
-2.1048
-3.44313
-4.37319
-2.16621
0.251422
0.263073
-0.823536
-5.26016
-0.380894
-0.4516
-0.645145
-1.95046
0.25155
0.253556
-1.28148
-0.217054
-4.29315
0.247086
-0.587327
-0.546781
-0.751036
-0.494464
-0.547085
-0.552399
0.247127
-1.07167
-1.6754
0.259563
-0.537287
-2.18676
-5.73441
-1.76113
-0.858111
-0.664907
-0.314507
-3.11391
-0.078306
-0.874379
-0.163245
-0.965937
-1.65309
0.263171
-0.772626
-1.72427
-5.14212
-0.8681
-0.219725
-6.89202
-0.654126
-0.890724
-0.332675
-0.591887
0.243738
0.244782
-3.0704
0.24618
-1.32103
-1.17041
-4.09824
-0.520917
0.216489
-3.17585
-0.785317
-0.688225
-0.769827
-0.543924
-0.826072
-1.22109
0.173661
-5.48302
-0.383693
-0.0464796
-0.472761
-1.13997
-6.43112
-1.1538
-3.19148
-0.71185
-1.78033
-0.504777
0.258094
0.267242
-6.57053
-3.38977
-0.943725
-0.35162
-0.583823
-0.640026
-0.872476
-0.731881
-1.28099
-0.508265
-2.64573
-1.22263
-1.36674
-0.501375
0.255664
-0.454851
-0.649226
-0.548004
-1.08782
-7.06632
-2.52646
0.218801
-6.69112
-1.9522
-7.22973
-5.60649
0.252861
-0.538932
-0.492544
-0.869116
-2.24166
-3.19305
-2.583
-6.58952
-0.987651
-1.21506
-6.99546
-3.22169
-1.1732
-4.27005
-0.489447
-0.567106
-5.03298
-0.632752
-1.63116
-2.47015
-0.700117
-7.38701
0.268416
-2.00011
-5.68803
-0.957001
-1.44291
-0.768217
-2.03615
-2.55239
0.0330201
0.191185
-0.937722
-2.14883
-2.41508
-0.947532
-0.880464
-0.696548
0.174549
-7.24262
-0.470331
-2.68232
-2.48927
-0.927945
-0.631661
-2.32368
-2.39049
-1.03911
-1.88191
-3.36061
-2.96189
-2.10605
-3.25889
0.252727
-0.903126
0.263152
-7.00102
-0.583383
-1.34899
-7.85941
-2.52186
-3.4372
-3.99003
-7.66472
-6.93699
-4.14004
-1.03202
-3.18786
-0.967997
-3.2351
-1.2522
-1.40833
0.255913
-1.0181
-1.20937
-0.0209825
-0.642074
-1.42291
-7.78484
-0.93177
-0.900453
-2.07831
-0.607044
-3.43917
0.116659
0.205771
0.255363
-0.072386
0.0881818
-0.891127
-6.35498
0.268562
-2.91778
-1.16224
-1.63425
-1.05478
-0.140077
-7.96324
-4.10939
-1.13532
-1.82572
-1.14926
0.0663496
-2.31278
-0.982673
-0.839366
0.251558
-1.67339
0.0883135
-0.348882
-4.14344
-0.376086
-0.879431
-4.29169
-1.39744
-4.31323
-1.54801
-1.53437
0.130264
-5.79178
-1.76758
0.00745715
-1.14812
0.0193021
-1.16974
-1.2097
-2.92797
-7.74463
-0.41103
0.112943
0.268467
0.126242
-7.85713
-0.728507
-0.97717
-2.28197
-0.914246
-1.32718
-0.25266
-0.910869
-3.22684
-0.879803
-3.63342
0.141336
-2.47021
-3.90048
-0.30881
-2.35514
-4.39232
-4.40046
-4.36693
-2.73312
-1.46692
-0.677043
-6.86755
0.204085
-0.584424
-1.12779
0.141685
-1.31272
0.220413
-1.82905
0.144788
-1.32844
0.152478
-0.8109
-1.60667
0.0543896
-3.33224
-3.21888
0.205547
0.0521381
0.0509648
0.0865732
-2.40518