<VTKFile type="UnstructuredGrid" version="0.1" byte_order="LittleEndian">
  <UnstructuredGrid>
    <Piece NumberOfPoints="7727" NumberOfCells="14983">
      <Points>
        <DataArray type = "Float64" NumberOfComponents="3" format="ascii">
3.5 2.00105 0.0 
3.5 1.99895 0.0 
0 0 0.0 
12 0 0.0 
0 4 0.0 
12 4 0.0 
1.84154 2.93167 0.0 
6.31643 3.89655 0.0 
7.07602 3.64664 0.0 
2.3504 1.2816 0.0 
3.46822 2.00422 0.0 
3.4492 2.00609 0.0 
9.75011 0.429191 0.0 
4.04015 2.1502 0.0 
3.4284 2.00811 0.0 
6.85325 0.398749 0.0 
3.40943 2.00992 0.0 
3.25458 2.03688 0.0 
3.39055 2.01171 0.0 
10.5646 0.785159 0.0 
3.37064 2.01358 0.0 
2.88552 1.91722 0.0 
3.20659 1.74411 0.0 
1.98766 0.466428 0.0 
3.3441 2.01602 0.0 
3.09521 2.05214 0.0 
3.32932 2.01737 0.0 
3.31416 2.01873 0.0 
3.36876 2.26764 0.0 
3.30101 2.01991 0.0 
3.27055 1.95359 0.0 
4.29539 2.8496 0.0 
3.28104 2.02167 0.0 
11.443 2.87979 0.0 
3.26112 2.02341 0.0 
7.27082 2.03327 0.0 
4.89223 2.24166 0.0 
4.37666 2.58028 0.0 
3.23123 2.02597 0.0 
1.81156 1.15645 0.0 
8.28155 1.27045 0.0 
3.21131 2.02765 0.0 
3.20135 2.02848 0.0 
3.18889 2.02951 0.0 
3.17635 2.03053 0.0 
0.759789 2.22952 0.0 
7.16717 0.558464 0.0 
3.16034 2.03183 0.0 
3.15052 2.03262 0.0 
0.628639 2.20506 0.0 
3.10955 0.899318 0.0 
3.13957 2.03349 0.0 
2.48103 2.13794 0.0 
3.1296 2.03426 0.0 
6.48933 2.22857 0.0 
3.12171 2.03487 0.0 
7.00253 2.02527 0.0 
3.11166 2.03562 0.0 
2.5181 1.97605 0.0 
3.10169 2.03635 0.0 
1.9886 2.59693 0.0 
3.0922 2.03704 0.0 
9.87757 2.91797 0.0 
3.08224 2.03774 0.0 
1.926 1.35136 0.0 
3.07177 2.03847 0.0 
3.05986 2.03927 0.0 
3.04983 2.03993 0.0 
6.05011 2.99649 0.0 
3.03985 2.04058 0.0 
4.30691 0 0.0 
3.02987 2.04121 0.0 
8.66013 2.72876 0.0 
3.0199 2.04182 0.0 
3.00992 2.04242 0.0 
11.7225 0.522192 0.0 
3.00193 2.04289 0.0 
2.24493 1.09945 0.0 
6.92709 2.09023 0.0 
2.98711 2.04373 0.0 
5.54837 0.896347 0.0 
2.97747 2.04427 0.0 
8.24797 3.03812 0.0 
2.96958 2.04469 0.0 
3.47062 0 0.0 
2.96201 2.04509 0.0 
4.80001 2.10726 0.0 
2.95043 2.04569 0.0 
9.9963 2.9126 0.0 
2.94005 2.0462 0.0 
2.93089 2.04665 0.0 
1.71617 3.08192 0.0 
2.24791 2.55131 0.0 
2.92007 2.04715 0.0 
9.25464 2.64568 0.0 
2.91208 2.04752 0.0 
4.90901 0.0899404 0.0 
10.8572 2.96282 0.0 
2.8996 2.04807 0.0 
2.8946 2.04828 0.0 
8.13323 0.520161 0.0 
2.88961 2.04847 0.0 
7.54433 1.66694 0.0 
2.88461 2.04866 0.0 
2.88003 2.04882 0.0 
5.86434 0 0.0 
2.76098 2.05221 0.0 
2.87462 2.04899 0.0 
6.50232 3.78738 0.0 
2.86962 2.04914 0.0 
6.52954 2.17864 0.0 
7.53674 2.98455 0.0 
2.85755 2.04945 0.0 
2.86213 2.04934 0.0 
1.65066 0.788693 0.0 
11.0785 1.20913 0.0 
2.85213 2.04957 0.0 
3.57408 2.26596 0.0 
2.84714 2.04967 0.0 
1.38271 1.68599 0.0 
2.84214 2.04975 0.0 
2.83714 2.04983 0.0 
12 2.63488 0.0 
2.7008 2.0473 0.0 
2.83214 2.04989 0.0 
2.82714 2.04994 0.0 
7.21233 1.13745 0.0 
2.81965 2.04999 0.0 
2.82215 2.04997 0.0 
3.12001 1.89246 0.0 
8.448 1.01116 0.0 
2.81215 2.05001 0.0 
2.80472 2.05001 0.0 
2.79507 2.04997 0.0 
2.79965 2.05 0.0 
5.55584 1.18487 0.0 
2.95243 3.12396 0.0 
2.78966 2.04993 0.0 
5.45557 0.605384 0.0 
2.78466 2.04988 0.0 
9.45522 2.67434 0.0 
2.77966 2.04982 0.0 
7.88728 1.90278 0.0 
2.77466 2.04975 0.0 
8.13864 0.956771 0.0 
2.77216 2.04971 0.0 
2.76716 2.04961 0.0 
2.76467 2.04956 0.0 
3.26053 1.9408 0.0 
2.75967 2.04946 0.0 
2.75467 2.04934 0.0 
6.38273 4 0.0 
2.74967 2.0492 0.0 
8.49499 2.49978 0.0 
2.74468 2.04906 0.0 
9.51856 2.75585 0.0 
2.73968 2.04891 0.0 
2.73469 2.04874 0.0 
9.41426 2.76593 0.0 
2.73219 2.04865 0.0 
2.72719 2.04847 0.0 
2.72261 2.04829 0.0 
2.90747 2.10005 0.0 
4.36168 2.87285 0.0 
2.7172 2.04806 0.0 
8.83747 2.67733 0.0 
3.66501 2.90506 0.0 
2.71221 2.04785 0.0 
6.57327 0.583372 0.0 
2.70472 2.0475 0.0 
2.67763 2.04605 0.0 
2.69045 2.04677 0.0 
2.69475 2.047 0.0 
6.62286 2.79864 0.0 
1.78974 1.08898 0.0 
2.68477 2.04646 0.0 
4.79305 1.92641 0.0 
8.08707 1.03905 0.0 
2.67479 2.04588 0.0 
9.04251 2.70224 0.0 
2.66978 2.04558 0.0 
2.6648 2.04526 0.0 
9.48102 3.02398 0.0 
2.65981 2.04494 0.0 
8.79605 3.01706 0.0 
2.65482 2.04461 0.0 
5.37792 1.70953 0.0 
2.64741 2.04409 0.0 
8.98557 2.77888 0.0 
7.99404 0.835602 0.0 
2.63986 2.04355 0.0 
2.71099 2.05731 0.0 
2.63239 2.04298 0.0 
8.27174 0.700244 0.0 
2.62498 2.0424 0.0 
8.23459 1.16471 0.0 
2.62242 2.0422 0.0 
8.44244 0.812526 0.0 
2.61495 2.04158 0.0 
9.08968 2.78231 0.0 
2.60755 2.04095 0.0 
9.42671 3.11439 0.0 
3.45371 2.94783 0.0 
2.60001 2.04028 0.0 
6.9847 0.578034 0.0 
2.58798 2.03916 0.0 
2.59254 2.03959 0.0 
5.0418 2.06859 0.0 
6.22163 2.37134 0.0 
8.97315 2.9414 0.0 
2.58259 2.03864 0.0 
9.42058 2.93769 0.0 
4.31216 2.91887 0.0 
2.57513 2.0379 0.0 
2.57264 2.03764 0.0 
2.57016 2.03735 0.0 
2.56768 2.03702 0.0 
2.56522 2.03662 0.0 
2.56276 2.03616 0.0 
2.56031 2.03565 0.0 
2.55788 2.03508 0.0 
2.55546 2.03446 0.0 
2.55305 2.03379 0.0 
2.55066 2.03307 0.0 
2.54828 2.0323 0.0 
2.54592 2.03148 0.0 
2.54357 2.03062 0.0 
2.54124 2.02971 0.0 
2.53893 2.02876 0.0 
2.53664 2.02777 0.0 
2.53436 2.02674 0.0 
2.5321 2.02567 0.0 
2.52986 2.02456 0.0 
2.52764 2.02342 0.0 
2.52544 2.02224 0.0 
2.52325 2.02103 0.0 
2.52108 2.01978 0.0 
2.51893 2.01851 0.0 
2.5168 2.0172 0.0 
2.51469 2.01587 0.0 
2.51259 2.01451 0.0 
2.51052 2.01312 0.0 
2.50845 2.0117 0.0 
2.50644 2.01022 0.0 
2.50456 2.00858 0.0 
2.50283 2.00678 0.0 
2.50139 2.00474 0.0 
2.50037 2.00246 0.0 
2.5 2 0.0 
2.50037 1.99754 0.0 
2.50139 1.99526 0.0 
2.50283 1.99322 0.0 
2.50456 1.99142 0.0 
2.50644 1.98978 0.0 
2.50845 1.9883 0.0 
2.51052 1.98688 0.0 
2.51259 1.98549 0.0 
2.51469 1.98413 0.0 
2.5168 1.9828 0.0 
2.51893 1.98149 0.0 
2.52108 1.98022 0.0 
2.52325 1.97897 0.0 
2.52544 1.97776 0.0 
2.52764 1.97658 0.0 
2.52986 1.97544 0.0 
2.5321 1.97433 0.0 
2.53436 1.97326 0.0 
2.53664 1.97223 0.0 
2.53893 1.97124 0.0 
2.54124 1.97029 0.0 
2.54357 1.96938 0.0 
2.54592 1.96852 0.0 
2.54828 1.9677 0.0 
2.55066 1.96693 0.0 
2.55305 1.96621 0.0 
2.55546 1.96554 0.0 
2.55788 1.96492 0.0 
2.56031 1.96435 0.0 
2.56276 1.96384 0.0 
2.56522 1.96338 0.0 
2.56768 1.96298 0.0 
2.57016 1.96265 0.0 
2.57264 1.96236 0.0 
2.57513 1.9621 0.0 
2.58259 1.96136 0.0 
5.10632 2.07303 0.0 
2.58998 1.96065 0.0 
3.93829 1.75925 0.0 
2.59503 1.96018 0.0 
2.60001 1.95972 0.0 
7.51542 3.75654 0.0 
2.60499 1.95928 0.0 
2.60997 1.95884 0.0 
7.9704 1.8341 0.0 
2.61495 1.95842 0.0 
2.61993 1.95801 0.0 
4.98986 2.23313 0.0 
2.62491 1.9576 0.0 
2.62989 1.95721 0.0 
5.0246 1.95763 0.0 
2.63488 1.95683 0.0 
2.63986 1.95645 0.0 
2.64485 1.95609 0.0 
4.49088 0.755642 0.0 
2.64983 1.95574 0.0 
2.6623 1.9549 0.0 
2.65482 1.95539 0.0 
2.65981 1.95506 0.0 
8.17613 1.24546 0.0 
6.34572 0.85786 0.0 
2.66729 1.95458 0.0 
11.2956 1.25205 0.0 
8.33045 1.37709 0.0 
2.67228 1.95427 0.0 
2.67727 1.95397 0.0 
6.22457 1.68412 0.0 
2.68475 1.95354 0.0 
6.62504 0.358016 0.0 
2.69217 1.95314 0.0 
11.1454 3.21 0.0 
2.69723 1.95288 0.0 
2.69973 1.95275 0.0 
4.7957 2.96147 0.0 
2.70715 1.95239 0.0 
6.67619 2.27471 0.0 
4.50325 2.71135 0.0 
2.71221 1.95215 0.0 
2.7172 1.95194 0.0 
12 0.989725 0.0 
2.7222 1.95173 0.0 
6.19002 3.89795 0.0 
2.72719 1.95153 0.0 
6.69543 3.8903 0.0 
10.5184 4 0.0 
2.73219 1.95135 0.0 
2.73718 1.95118 0.0 
7.07418 1.95837 0.0 
6.0632 3.89889 0.0 
2.74218 1.95102 0.0 
6.75591 3.77849 0.0 
2.74967 1.9508 0.0 
2.76007 1.95054 0.0 
2.7571 1.9506 0.0 
4.08425 1.9528 0.0 
1.27321 0 0.0 
2.76467 1.95043 0.0 
2.76966 1.95034 0.0 
3.39714 3.04656 0.0 
2.77216 1.95029 0.0 
2.77716 1.95021 0.0 
2.77966 1.95018 0.0 
2.78466 1.95012 0.0 
2.79209 1.95005 0.0 
3.7605 1.3859 0.0 
2.79715 1.95001 0.0 
5.22417 1.82508 0.0 
3.23503 2.70868 0.0 
2.80215 1.94999 0.0 
2.80715 1.94998 0.0 
3.00828 0.899117 0.0 
2.81215 1.94999 0.0 
2.81715 1.95 0.0 
5.10878 1.87355 0.0 
6.537 2.04355 0.0 
1.83743 2.41639 0.0 
2.82215 1.95003 0.0 
2.82714 1.95006 0.0 
2.82964 1.95009 0.0 
6.69382 3.20227 0.0 
2.83707 1.95017 0.0 
2.84464 1.95029 0.0 
2.84964 1.95038 0.0 
1.92185 0.864801 0.0 
2.85463 1.95048 0.0 
5.01917 1.52083 0.0 
5.4706 2.96205 0.0 
2.86213 1.95066 0.0 
2.86713 1.95079 0.0 
9.57894 1.49038 0.0 
2.87212 1.95093 0.0 
2.87712 1.95109 0.0 
4.05803 1.86023 0.0 
2.88211 1.95125 0.0 
7.80802 1.58041 0.0 
2.88711 1.95143 0.0 
2.41588 2.51994 0.0 
2.8921 1.95162 0.0 
2.60721 0.925292 0.0 
2.8971 1.95183 0.0 
5.32767 2.82292 0.0 
2.90417 1.95213 0.0 
2.91208 1.95248 0.0 
5.14871 1.60688 0.0 
2.92207 1.95294 0.0 
12 0.742951 0.0 
2.93157 1.95339 0.0 
1.73985 0 0.0 
2.94154 1.95387 0.0 
2.95152 1.95437 0.0 
5.25734 2.73244 0.0 
2.96201 1.95491 0.0 
6.49298 3.12281 0.0 
2.9715 1.95541 0.0 
5.48227 3.20525 0.0 
2.98147 1.95595 0.0 
0.966707 1.21788 0.0 
2.99145 1.95651 0.0 
3.68261 0 0.0 
3.00193 1.95711 0.0 
7.52081 1.95258 0.0 
3.01143 1.95767 0.0 
12 1.23599 0.0 
3.02139 1.95827 0.0 
6.57176 2.37503 0.0 
3.03137 1.95889 0.0 
12 0.247925 0.0 
3.04135 1.95952 0.0 
2.37133 1.3749 0.0 
3.05132 1.96016 0.0 
6.68848 2.38189 0.0 
3.0618 1.96086 0.0 
6.67764 1.24793 0.0 
3.07177 1.96153 0.0 
0.769062 1.4551 0.0 
3.08126 1.96219 0.0 
10.1209 2.69308 0.0 
3.09172 1.96293 0.0 
3.09837 1.96341 0.0 
4.55025 2.0387 0.0 
9.20178 0.751944 0.0 
3.11166 1.96438 0.0 
10.1108 4 0.0 
3.12114 1.96509 0.0 
3.1311 1.96585 0.0 
6.86748 2.2434 0.0 
3.14156 1.96667 0.0 
8.5216 2.88868 0.0 
3.15104 1.96742 0.0 
6.59722 2.00471 0.0 
6.43196 2.27175 0.0 
3.17146 1.96907 0.0 
12 0.495652 0.0 
3.18336 1.97004 0.0 
6.42434 2.17873 0.0 
3.20135 1.97152 0.0 
3.22072 1.97314 0.0 
11.6154 4 0.0 
12 2.76481 0.0 
3.23123 1.97403 0.0 
2.05904 0.91682 0.0 
3.24555 1.97525 0.0 
8.58402 0.30847 0.0 
3.26112 1.97659 0.0 
6.05132 2.47649 0.0 
4.49694 2.34339 0.0 
3.28104 1.97833 0.0 
5.22329 0.594422 0.0 
3.28032 0.97228 0.0 
3.30038 1.98003 0.0 
8.26583 1.45566 0.0 
4.90623 3.20801 0.0 
3.31787 1.9816 0.0 
3.75 4 0.0 
3.33233 1.9829 0.0 
8.37767 1.48423 0.0 
8.68938 1.7583 0.0 
3.35073 1.98458 0.0 
1.50522 0 0.0 
3.37064 1.98642 0.0 
1.04781 0 0.0 
4.5 4 0.0 
3.39055 1.98829 0.0 
8.22608 1.63221 0.0 
8.77818 2.48508 0.0 
3.41483 1.99059 0.0 
10.3091 4 0.0 
[...]
<PointData>
  <DataArray type = "Float64" Name="BLMLevelSetLayer1" format="ascii">
0.229526
0.229526
-2.97016
-8.50236
-2.97016
-8.50236
-0.906743
-3.16535
-3.70696
-0.484448
0.229526
0.229528
-6.2147
-0.330835
0.229526
-3.48597
0.229527
0.216667
0.229526
-6.93857
0.229526
0.19539
0.00245283
-1.37294
0.229526
0.214245
0.229526
0.229526
-0.0232865
0.229528
0.205794
-0.933526
0.229526
-7.76193
0.229526
-3.54143
-1.18335
-0.821207
0.229526
-0.855662
-4.6072
0.229526
0.229526
0.229526
0.229527
-1.52652
-3.71041
0.229526
0.229527
-1.6539
-0.832866
0.229525
0.106195
0.229525
-2.76845
0.229526
-3.27308
0.229526
0.224353
0.229526
-0.553248
0.229526
-6.21362
0.229526
-0.633572
0.229526
0.229526
0.229525
-2.50798
0.229525
-1.92614
0.229525
-4.98167
0.229525
0.229525
-8.12457
0.229526
-0.690239
-3.19872
0.229525
-2.09674
0.229525
-4.63038
0.229525
-1.75781
0.229526
-1.07482
0.229526
-6.33042
0.229525
0.229527
-1.10204
-0.367915
0.229525
-5.5611
0.229526
-2.14316
-7.19027
0.229522
0.229522
-4.63397
0.229522
-3.8284
0.229522
0.229524
-2.86659
0.226799
0.229522
-3.26402
0.229522
-2.80522
-3.92529
0.229522
0.229526
-1.24521
-7.39001
0.229527
-0.0455507
0.229521
-0.931114
0.229527
0.229521
-8.29407
0.229527
0.229526
0.229521
-3.58145
0.229522
0.229526
0.157181
-4.81611
0.229527
0.229522
0.229523
0.229522
-1.98163
-0.84765
0.229522
-2.17178
0.229522
-5.76364
0.229522
-4.15881
0.229522
-4.52474
0.229526
0.229521
0.229522
0.193916
0.229522
0.229522
-3.27845
0.229522
-4.7903
0.229522
-5.83618
0.229522
0.229522
-5.73399
0.229526
0.229521
0.229527
0.177251
-0.996253
0.229521
-5.15062
-0.689424
0.229526
-3.15409
0.229523
0.229524
0.229525
0.229523
-2.99358
-0.921699
0.229523
-1.06556
-4.4569
0.229523
-5.35716
0.229522
0.229523
-5.83834
0.229523
-5.1631
0.229523
-1.67056
0.229522
-5.31092
-4.41264
0.229522
0.220017
0.229526
-4.71579
0.229523
-4.578
0.229526
-4.85332
0.229523
-5.41448
0.229522
-5.80084
-0.708405
0.229522
-3.53374
0.229522
0.229526
-1.31375
-2.51718
-5.32382
0.229526
-5.76468
-0.996032
0.229516
0.229526
0.229444
0.229409
0.229439
0.229526
0.229444
0.229417
0.229445
0.229526
0.229451
0.229427
0.229452
0.229526
0.229458
0.229436
0.229459
0.229526
0.229465
0.229445
0.229466
0.229526
0.229471
0.229454
0.229473
0.229526
0.229477
0.229457
0.22948
0.229526
0.229172
0.229014
0.229092
0.229526
0.228513
0.228139
0.228513
0.229526
0.229092
0.229014
0.229172
0.229526
0.22948
0.229457
0.229477
0.229526
0.229473
0.229454
0.229471
0.229526
0.229466
0.229445
0.229465
0.229526
0.229459
0.229436
0.229458
0.229526
0.229452
0.229427
0.229451
0.229526
0.229445
0.229417
0.229444
0.229526
0.229439
0.229409
0.229444
0.229526
0.229516
0.229526
-1.37841
0.229523
-0.270029
0.229522
0.229523
-4.15287
0.229522
0.229523
-4.24392
0.229522
0.229523
-1.2783
0.229522
0.229523
-1.29563
0.229522
0.229523
0.229523
-1.36034
0.229523
0.229527
0.229522
0.229523
-4.50692
-2.83645
0.229522
-7.60178
-4.64079
0.229526
0.229522
-2.51317
0.229522
-3.30014
0.229527
-7.51085
0.229522
0.229523
-1.38331
0.229522
-2.95843
-0.999718
0.229526
0.229521
-8.33018
0.229527
-3.06205
0.229521
-3.48262
-7.06801
0.229526
0.229521
-3.34489
-2.9598
0.229526
-3.47995
0.229522
0.229524
0.229521
-0.356548
-2.11099
0.229522
0.229522
-0.801604
0.229526
0.229521
0.229522
0.229522
0.229527
-0.436574
0.229521
-1.50339
-0.451147
0.229526
0.229521
-0.827246
0.229527
0.229521
-1.38413
-2.80777
-0.551684
0.229526
0.229521
0.229522
-3.18272
0.229521
0.229522
0.229522
-1.03657
0.229522
-1.36311
-1.96291
0.229526
0.229521
-5.87065
0.229527
0.229521
-0.345488
0.229527
-4.09877
0.229521
-0.27561
0.229527
-0.801507
0.229521
-1.77443
0.229525
0.229526
-1.46516
0.229526
-8.36277
0.229526
-1.89754
0.229526
0.229526
-1.67394
0.229526
-2.96677
0.229526
-2.08984
0.229526
-1.49081
0.229526
-1.77767
0.229526
-3.79155
0.229526
-8.30465
0.229526
-2.86492
0.229526
-8.44896
0.229526
-0.389081
0.229526
-2.98162
0.229526
-3.03566
0.229526
-1.58506
0.229526
-6.4274
0.229526
0.229525
-0.8214
-5.60702
0.229526
-6.67686
0.229526
0.229526
-3.14667
0.229526
-4.86992
0.229526
-2.8677
-2.71491
0.229526
-8.40239
0.229526
-2.70021
0.229526
0.229527
-8.1284
-8.30472
0.229526
-0.928921
0.229526
-5.12817
0.229526
-2.36572
-0.824555
0.229526
-1.99363
-0.772826
0.229526
-4.56717
-1.62364
0.229526
-1.785
0.229526
-4.67523
-4.96544
0.229526
-1.99587
0.229526
-2.23762
-2.0056
0.229526
-4.51076
-5.0708
0.229526
-6.8669
0.229526
-0.465426
0.229526
-2.88117
-0.82202
0.229526
-0.416153
-0.354701
-1.80516
-2.77876
-2.59653
-0.800249
-0.418125
-1.90549
0.208368
-1.81872
-0.382783
-2.10543
-0.73193
-0.891865
-0.739874
-2.23233
-2.01116
-2.11917
-1.83101
-4.64435
-0.818441
-4.4009
-2.59839
-2.96163
-0.175649
-7.26971
-7.67982
-3.84173
-1.56754
-2.08238
-3.18799
0.207736
-6.87599
-3.19932
-0.194723
-0.400437
-0.828116
-6.63328
-2.59769
-7.99106
-1.04607
-8.30596
-1.69458
-3.08791
-0.479794
-1.72161
-1.7304
-8.27052
-8.27248
-8.25919
-1.83824
0.0997069
-5.74221
-6.38033
-0.181241
-8.33546
0.0476103
-3.05171
-7.47307
0.0190373
0.217754
-1.00339
-8.36174
-8.40163
-8.44854
-7.77412
-0.20719
-0.832152
-0.714446
-2.56898
-2.36826
-1.04702
-0.916871
-1.13587
-0.786278
-2.43132
-2.32042
-0.879661
-2.45017
-0.225791
-0.460175
-5.6896
-1.91029
-0.345803
-0.830815
0.139079
-2.00683
-1.72265
0.210745
-1.75009
-2.96804
-2.7005
-3.48877
-4.54893
-0.248469
0.158288
-2.12656
-1.72118
-1.36605
-1.73971
-0.598392
-1.00176
-2.82053
-2.31935
-2.59653
-2.75265
-6.16729
-2.26623
-2.42481
-0.338375
-0.840859
-2.77876
-0.489344
-0.83339
-0.994554
-2.17226
-3.26975
-2.82053
-2.28386
-2.27186
-2.28386
-6.26994
-2.38052
-2.46259
-2.56468
-2.6847
-2.68844
-5.45735
-2.23115
-1.07962
-0.137318
0.207042
-7.30595
-3.59353
-0.590291
-1.7858
0.185085
-0.661639
0.144494
-0.391145
-1.78943
-5.03055
-2.5846
-0.415516
-5.30893
0.22306
-2.98111
-0.26389
-0.789236
-7.44784
-4.62451
-1.66612
-0.4737
-0.569764
-4.74059
-6.84663
-5.11143
-0.912564
-4.62424
-0.251013
-1.70695
-4.57703
-0.383519
0.193627
-0.966183
-1.68612
-2.55861
-7.67507
-1.03704
-5.93121
-0.560792
-5.82964
-1.5207
-2.45719
-1.68036
-0.241301
-3.37542
-4.98268
-3.14965
-2.54015
0.188709
-5.32975
-0.552336
-2.82525
-2.75429
-0.810039
-5.03573
-0.980911
-1.85952
-0.2901
-0.539502
-0.715087
-5.08074
-5.20735
-4.95151
-5.10312
-1.11157
-4.09805
-1.57487
-5.04995
-1.71188
-2.91865
-0.907574
-3.12523
-1.57985
-1.33325
-2.91554
-4.46605
-0.894597
-0.63466
-2.90437
-4.73829
-0.98469
-2.8892
-0.315723
-0.672027
-0.983091
0.203352
-5.0435
-4.82596
-2.777
-0.218208
-3.00808
-4.53693
-4.84234
-1.18691
-0.543072
-0.932489
-3.44158
-6.40941
0.178816
-3.14518
0.160288
0.10346
-2.76368
-1.76412
0.168003
0.0120513
-0.157312
-3.10577
-5.88648
-2.94066
-2.31913
-0.653953
-0.957408
-2.74878
-4.37725
-2.63331
-3.12577
-0.945713
-3.32863
-4.8513
-0.226173
0.130717
-1.4184
-6.66555
-1.42786
-4.88326
-4.89072
-2.31961
-2.35524
-1.62862
-7.67137
-0.0750758
-3.64831
-1.05091
-4.73705
-2.58896
-4.38924
-0.765212
-0.565552
-3.68286
-4.5097
-4.44106
0.161741
0.178609
-4.70908
-1.36139
-2.22409
-4.78495
-4.92998
-7.13422
0.093586
-1.17297
0.212073
0.211838
-2.54182
-2.71016
0.145623
-2.71752
-0.174065
-0.541214
-5.29747
0.115977
-1.04692
-0.434573
-0.533826
-8.2393
-0.971283
-0.571794
-2.68116
-0.543374
-3.18813
-2.04756
-2.58603
-2.75592
-2.66421
-1.26029
-2.61589
-1.85091
-1.67639
-1.50073
-0.0983204
-2.47901
-3.59034
-0.293745
0.0979212
-3.10919
-0.473614
-6.75151
-2.22262
-1.67414
-3.84385
-0.817285
-1.12851
-2.72316
-3.26053
0.216371
-0.909359
0.190992
-0.899908
-0.998219
-5.33725
-5.4235
-0.0613582
-2.8057
-0.267479
-0.866793
-1.26878
-0.216849
-8.03786
-0.652698
-1.0181
-7.52693
-2.41444
-1.46171
-3.0716
-1.26855
-5.79932
0.155045
0.161058
-1.08787
-7.45867
-0.569262
-7.9142
-1.89442
-7.74327
-0.674918
-1.98268
-3.65782
-7.94939
-1.45624
-1.15215
-7.69761
-4.24529
-8.02779
-3.57041
-4.86742
-1.31522
-3.07993
-1.14948
-7.91275
-3.28886
-0.100566
0.201741
0.153886
-6.26951
-3.41815
-1.07429
-0.243672
-1.34958
-5.39309
-4.92057
-1.44197
-0.388645
-6.84083
-3.34961
-8.17952
-4.9471
-8.19622
-0.760914
-2.30877
-0.600125
-4.36985
-0.0846345
-4.24216
-1.20211
-2.95272
-3.1581
-3.01756
-3.43056
-2.13743
-1.38018
-1.09408
0.153884
0.202872
0.227559
-0.444778
0.18866
-1.16271
-1.52519
-5.45744
-0.595576
-0.162256
-0.97232
-1.50391
-3.00624
-3.44784
-2.12452
-1.24416
-1.58255
-0.981625
-6.20675
-6.37297
-0.896397
-5.76835
-0.45069
-2.82433
-1.29409
-3.75536
-5.00161
-1.05758
0.10225
-2.33085
-2.40626
-0.203177
-1.64855
-0.125406
-6.51285
-5.99356
-0.933824
-0.603082
0.198378
-0.168339
-0.297319
-2.12436
-6.56894
0.000561338
-0.860702
-5.12711
-0.447638
-1.53217
0.214559
-4.85774
-0.640175
-5.01603
-0.397266
-0.0171753
-1.32443
-2.32878
-2.85797
-1.46508
-1.59191
0.156644
-1.9008
0.142961
-4.89459
-5.51493
-4.99967
-2.90344
0.172418
-0.35473
-0.705619
-6.19172
-3.07165
-1.34871
-3.11046
-4.81057
-5.22236
-6.45954
-1.94525
-0.17805
-0.674393
-1.28018
-3.59127
-0.143275
-0.406997
-2.62643
-2.2295
-1.93898
-0.927498
-2.8438
-2.53318
0.108443
0.168652
-1.78665
-0.0843062
-0.308691
-1.39812
0.200563
-0.200887
-2.40198
-0.288213
-0.288418
0.16869
-0.81181
-1.20534
-1.74248
0.192821
-0.495812
-1.76428
-3.18598
-0.937949
-0.118282
-0.788044
-1.2508
-0.944008
-4.53067
-4.31056
-5.30103
-3.86989
-2.95001
-3.18697
-0.387892
-2.19274
-1.80905
-1.90188
-5.69746
-2.76296
-1.06821
-4.79614
-3.70415
-2.0253
-0.696129
-0.80349
0.107263
-3.07513
-0.111196
-2.73788
-0.609936
-0.479689
-2.13609
0.0260605
-3.70186
-2.28681
-1.95233
-2.85666
-3.054
-2.50458
-0.597548
-0.248389
-2.6968
-0.073709
-0.14173
-0.086214
-2.33312
-0.819923
-1.24104
-3.22912
-5.02749
-4.08121
-2.02113
-0.149704
-0.793696
-2.60154
-0.571777
-0.955323
-0.909097
-5.22467
-0.504197
-1.38843
-1.37301
-2.36093
-5.5714
-0.719974
-0.834793
-2.24975
-2.09174
-1.41784
-2.58067
-0.272234
-1.73134
-3.14648
-5.58764
-0.918916
-0.269874
-0.229736
-1.12515
-3.66785
-0.334103
-5.74808
-2.28884
-0.919793
-4.18054
-2.00725
-1.25835
-3.99587
-0.443664
-0.0520042
-8.2854
-0.642697
-0.146013
-0.497662
0.138772
-4.98644
-5.81339
-1.58263
-1.96652
-3.61124
0.0919645
-4.95137
-0.262294
-2.06661
-2.25248
-5.07191
-0.455188
0.210242
-1.09475
-2.36016
-2.65712
-6.9626
-1.6337
-1.2623
-1.11952
-1.84261
-2.00914
-3.41754
-0.63676
0.0792615
-0.466165
-0.655318
-0.265094
-2.1351
-0.45988
0.143195
-2.95781
-1.64005
-5.80303
-1.90368
-0.718482
-0.229765
-1.13565
0.125729
-1.44668
-2.19546
-0.326896
-0.016441
-0.857633
-0.200507
-4.74669
0.199151
-1.09055
0.192086
0.220202
-3.11692
-2.0258
-1.31791
-0.375349
-0.307914
-6.72673
-0.347003
-2.12205
-0.67107
-0.651149
-7.11103
-0.660282
-3.42643
-5.1534
-0.247972
-5.19612
-0.6744
-0.88102
-0.622535
-6.60108
-0.293615
0.184308
-3.81189
-5.01245
-2.55614
-2.95641
-0.520313
-0.490362
-4.87511
-1.95876
-0.892149
-3.66741
-0.632507
-0.717552
0.0795892
-0.283306
-0.393621
-1.49113
-3.45208
-1.15361
-0.184729
-1.93733
-1.88677
-0.175753
-0.862686
-1.73447
-0.372171
-3.32319
-0.301421
-2.77486
-3.96718
-6.50641
-4.29069
-0.70241
-7.61949
-0.388628
0.200834
-6.83449
-3.42236
-1.05206
-1.72204
-0.0148745
-3.82988
-0.0235169
0.194627
-1.05189
-1.9525
-0.76141
-1.65393
-7.47522
0.155231
-0.532276
0.191127
-0.552497
-0.669253
-4.21995
-2.03274
-0.720496
-3.54906
-0.70056
-0.482704
-1.47184
0.180265
-0.475079
-3.70109
-3.01388
-3.86425
-0.764856
-6.13165
-0.527302
-0.506145
-0.58122
-1.03383
-5.1519
0.214593
-0.733055
-6.47748
-0.87536
-5.30381
-1.68026
-3.74914
-0.315313
-0.931383
-6.48641
-3.30308
-0.478626
-7.47442
-0.758544
-0.346581
-1.05621
-3.59731
-0.614793
-7.26629
-0.643638
-4.57005
-0.714011
0.110872
-1.33492
0.220628
-0.825725
-7.72662
-7.34473
-5.34281
-7.3453
-0.775181
-0.57048
-2.17724
0.142213
-0.429895
-0.589807
-0.810449
-7.56615
-7.95932
-0.507837
-1.82228
0.218834
0.211773
-4.28786
0.185105
-8.17477
-7.66933
-0.889958
-2.04942
-0.258167
-0.400827
-6.52466
-0.654162
-0.39912
-7.86687
-7.49626
-0.669598
-2.03679
-2.2393
-1.50343
-0.671381
-0.0612212
-5.47749
-0.800851
-7.77968
-3.82696
-6.20868
-0.773408
-3.02995
-1.72001
-0.867217
-7.19151
-4.01855
0.197772
-0.815416
-5.10764
-2.93804
-4.59028
-8.05132
0.142523
-0.414894
-7.80841
-5.1321
-7.86199
-3.76851
-0.602252
-5.97734
-0.176712
-0.490752
-0.775055
-4.84887
-8.27487
0.225194
-4.82832
-5.58687
-4.44598
-2.45652
-2.84808
-3.93948
-5.09045
-0.675728
-0.471585
-0.273079
-7.13459
-5.73434
-6.36804
-2.27036
-3.03368
-0.956397
-7.08333
-2.16667
-0.28388
-0.631196
-0.153403
-0.163674
-1.96195
0.199706
-8.08092
-3.92348
-3.27241
-0.346163
-8.01598
-1.78859
-2.13043
-3.1181
-1.44824
-0.334086
-6.98571
0.217421
-1.83941
0.198608
-7.88821
-0.637974
0.137742
-0.877567
-4.2763
-4.92021
-5.59544
-0.697273
-0.231778
-4.81406
-6.05927
-6.54025
-1.89336
-0.212126
-4.55023
-3.76019
-1.59757
-0.47381
0.205523
-2.12157
-4.67711
-0.642088
-2.58611
-1.94628
-6.61103
-3.96158
-0.226393
-2.96248
-2.82097
-1.95679
-2.21081
-2.94052
-2.9416
-0.526031
-0.693056
-3.72206
-2.39874
-3.22501
-0.289224
-3.33664
-0.306643
-0.781275
0.185761
-3.95486
-2.54414
-1.84669
-6.34462
-3.74457
-2.18011
-1.85333
0.0230536
-1.9103
-0.684515
-4.81285
-1.76786
-4.03566
-2.96483
-0.336866
-4.63153
-1.83419
-0.169272
-0.48482
-0.398182
-2.1617
0.0851393
-4.58078
-0.614491
-0.947051
0.145155
-4.85221
-0.532712
-5.05581
-1.03702
-4.00787
-2.03351
-2.90454
0.131027
-7.91339
-4.11597
-4.41162
0.146269
-4.81463
-2.04194
-2.42566
-2.52424
-6.8008
-0.693985
-2.52617
-0.248904
-4.25999
-2.78669
-0.733871
-6.20651
-2.78746
-3.93552
-0.593079
-1.59557
-4.265
-6.68997
0.220868
0.181991
-6.36004
0.200389
0.0895155
-0.313834
-0.773344
-1.26716
-1.43793
-1.7802
-4.29023
-8.05895
-7.99733
-8.08296
-7.59375
-6.24085
-3.98232
-2.85045
-6.02955
-6.78627
0.218189
-5.92634
-2.41627
-0.902597
-6.06346
0.176508
-1.62327
-4.77939
-6.41397
0.203797
-3.92385
-0.870132
-2.43979
-0.546599
-1.25949
-2.68789
-4.07269
-1.98067
-2.34002
-2.91341
-2.34672
-0.156684
0.211008
-4.6525
-0.0560483
-2.92231
-1.45596
-2.51629
-4.2649
-0.877444
-3.3124
-3.94238
-0.224605
-3.36486
-5.5384
-0.594992
-0.245917
-1.51293
-4.90432
-4.2031
-6.79973
-5.94594
-4.95874
-4.13824
-1.10034
-4.82081
-3.0763
-2.68363
-4.2311
-0.636083
-0.526688
-0.306505
-1.13052
-6.03324
-1.57996
-0.323122
-6.00293
-2.06629
-2.24301
-3.52949
-0.595111
-4.38286
0.222626
-1.39394
-3.43148
-3.85342
-1.47081
-4.42863
-3.57143
-1.20304
-4.36986
-1.44435
-2.8065
0.153261
-0.410872
-1.79854
-0.571216
-1.32122
-4.68067
-6.12181
-6.71002
-1.00385
0.224352
-0.471173
-0.260407
-1.39897
-3.15172
-0.948485
0.223184
-4.81651
-0.358847
-4.52377
-6.90355
-6.24892
-0.564425
-4.78183
-5.58694
-0.352986
-0.474771
-0.663216
-4.46266
-4.0658
-0.477407
0.226721
-1.05988
-1.16769
-2.09221
-3.45248
-0.419262
-2.59904
-2.1616
0.223494
-0.480257
-5.78109
-0.752699
-0.430424
0.227448
0.0550137
-6.20808
-5.57375
-2.25601
-1.14497
-1.13895
-1.11912
0.193546
-4.65962
-7.27457
-5.68107
-1.74514
-5.76299
-5.72718
-5.68721
-1.16902
0.229529
-5.25491
-5.6095
-1.08077
-4.30955
0.224354
-4.56751
-5.45773
-1.00848
-7.53448
-2.4519
-4.41375
-2.7356
-0.447928
-1.19111
0.212126
-4.77094
-7.28157
-5.86071
-3.39502
-4.35943
-0.445084
-2.85237
-0.491392
-1.2616
-0.452807
-0.789944
0.226528
-5.43795
-3.39537
-6.89139
-3.36255
-0.133828
-0.771764
-2.67911
-7.48223
-1.96087
-0.570403
-6.95292
-0.403867
-2.62641
-5.79315
-1.00976
-0.312984
-0.391838
-5.72532
-0.283406
-5.21135
-1.0375
-1.89433
-5.97585
-3.93865
-1.07728
-5.28408
-3.97218
-0.58376
-0.640453
-6.10989
-0.877088
-5.68793
-0.558217
-0.347701
-2.26682
-5.84115
0.222954
-0.6697
-6.57023
-2.68921
-6.70661
-4.49396
-5.8872
-5.93989
-6.07556
-6.08756
0.225497
0.21442
-2.30119
-0.446659
-1.26004
-5.89429
-0.440551
-6.16676
-6.16469
-5.95758
-5.92208
-3.84588
-3.23288
0.179641
-2.50708
-5.3812
0.217936
-6.42172
-6.37338
-6.50218
-6.00484
-6.21639
-6.50955
-0.913805
-6.3971
-2.4354
-6.54162
-1.18141
-6.26905
-0.479347
-5.61047
-5.10878
-2.50212
-3.48387
-5.311
-3.78535
-3.89268
-5.25753
-4.51864
-2.58373
-2.30515
-3.86092
0.228428
-3.14069
-5.42131
-1.20323
-6.44293
-0.749838
-6.06386
-1.20344
-5.40654
-8.03306
0.218165
-2.23404
-5.36122
-1.61581
-2.46751
-8.09139
-3.50029
-6.3747
-8.12517
-7.63577
-3.33007
-7.91805
-2.65503
-4.66146
-2.91331
0.225005
-4.41694
-3.32844
-2.94663
-4.70555
0.032349
-2.58441
-1.53171
0.174053
-1.68291
-2.50759
-5.14103
0.150093
-1.05483
-0.53479
-3.88492
-4.05103
-2.39656
-2.84723
-0.63463
-2.72256
-3.25675
-1.57396
-2.45005
-0.684726
-2.8133
-0.216652
0.226724
-0.673547
-1.17294
0.214116
-0.0712292
-0.800289
-3.51136
-1.13552
-0.395667
-2.72991
-2.7061
-3.61499
-5.27396
-2.78296
0.084574
-6.47845
0.227216
0.225966
-3.47552
-1.02248
-2.03785
-2.91282
-2.27798
-0.823476
-3.13108
-1.64887
-1.16069
0.121187
-5.20929
-0.466922
-1.18881
-0.688947
-0.953159
-5.57174
-0.819488
-0.937049
-0.813826
-0.464711
-3.22138
0.0587901
-1.24435
-3.83871
-2.72984
-4.8862
-1.43535
-0.33821
-1.13345
-6.42911
-5.45369
-4.23696
-0.592848
-7.15722
0.223825
-1.23199
-1.95403
-0.729784
-0.348069
-1.53467
-1.20686
-2.40088
-0.769839
-1.29471
-0.973394
-2.89429
-1.28274
-0.813491
-3.25064
-0.591296
-0.963008
-4.10015
-5.84094
-6.30913
-6.38459
-1.76275
-0.911815
-0.946226
-2.0672
-0.732429
0.217188
-5.41259
0.0657361
-0.931977
-1.2733
-0.339281
-1.86701
-3.59085
-1.26332
-5.41079
-2.08792
-1.234
-1.00459
-0.871696
-1.05375
-0.832189
-0.591765
-0.577902
-0.81486
-5.32199
-0.835825
0.210908
-0.546844
-0.86913
-0.491492
-0.645248
-0.590947
-0.913198
-0.532123
-1.8527
0.0684356
-0.807002
-3.40173
-0.246814
-2.1453
-0.980843
-0.624504
-2.20672
0.218145
-4.87866
0.18056
-5.30066
-0.421399
0.210572
-4.13887
-1.99096
-2.53406
0.206482
-1.32199
0.206812
-4.33366
-3.67395
-0.110094
-0.493429
-0.791541
-2.51029
-0.58759
-0.891087
0.22289
-1.11218
-1.71591
-3.11297
0.203925
-2.22727
-5.77492
-1.80163
-0.672913
-0.74274
-0.355012
-4.37756
-4.14855
-0.798347
-0.832075
-1.68939
-0.924818
-1.78276
-0.721056
0.209251
-5.18262
-3.83163
-0.260229
-6.93252
0.214953
-8.28626
-0.37318
-1.15374
-1.18146
0.146201
-0.00779714
-0.764603
-1.36153
-0.916106
-3.25615
-0.561421
-0.584637
0.228164
-0.759364
-2.28086
-0.810332
-1.08371
-0.389223
-2.72271
-2.62443
-0.573882
-0.424198
-0.998231
-0.513265
-2.68326
-6.47163
-0.94522
-0.600653
-0.512471
0.219903
-0.545282
-1.4835
-2.59182
-1.67851
-0.885487
-1.3239
-1.12458
-0.624328
-0.0656415
-0.55886
-0.969056
-3.00184
-0.536187
-0.97974
-3.49186
-1.40724
-0.541879
0.179172
-2.7269
-0.689731
-2.1193
0.132169
-7.10683
0.215941
-2.13415
-6.73163
-3.23477
-7.27024
-5.64699
-1.64805
-0.579437
-0.915608
-3.73587
-0.839967
-0.941442
0.215165
-6.63002
-1.02816
-1.21375
-7.03597
-0.979814
-0.965997
-2.14175
-4.0307
-0.930922
-5.07349
-0.673256
-2.52217
-2.66826
-1.01555
-7.42751
0.227912
-2.04061
-5.72853
0.0424709
-4.14724
-0.808722
-2.07666
-2.36118
0.150715
-0.430586
-1.55792
-2.18933
-2.45558
-0.775755
-0.138903
-0.656322
-0.681465
-7.28313
0.212098
-0.627956
-1.82407
-2.43405
-1.08141
-0.79537
-1.05592
-1.07049
-1.92241
-0.844231
-3.00239
0.222575
-0.627176
-3.91625
-0.114405
-5.83279
-7.04152
-1.35104
-1.3895
-7.89992
-2.56236
-0.717597
0.227836
-7.70522
-6.97749
-2.38009
-1.07253
-0.610187
-1.0085
-0.175063
-1.29271
-1.44883
-1.17578
-0.919129
-1.24988
-0.875644
-0.0360316
-1.46341
-7.82535
0.0743685
-1.87221
-3.6688
0.0760946
0.0851091
0.165189
-0.626136
0.183143
0.228641
-2.35354
-2.90136
-6.39549
-1.18977
-4.61148
-1.20274
-1.67475
-4.18516
0.025431
-8.00374
0.209858
-3.71012
0.0180072
0.0449519
0.00921902
-1.15965
-1.02318
-0.954312
-1.04308
-1.7139
-1.50344
-0.389387
-2.34669
0.218706
0.087119
-4.3322
-1.43795
-4.35373
-1.58851
-1.57488
-3.25689
-1.80795
-0.953478
-1.87363
-1.18862
-0.0212025
-1.21024
-1.25021
0.108494
-7.78513
-0.451535
-0.553661
-0.945742
0.103213
-7.89764
-2.32
-0.293096
-0.448312
0.146573
0.00825112
-0.350726
0.101558
-2.5107
-0.629479
-2.76777
-0.940424
0.107286
-0.717326
-0.374138
-2.39565
-4.43282
-4.44097
-4.40743
-2.77362
-1.27211
0.153558
-6.90806
0.16358
-3.99465
-1.16829
0.0466623
-1.35323
0.179909
0.16382
-0.289286
-1.36894
0.111974
-0.221571
-1.37748
-0.815415
0.011614
0.142377