<VTKFile type="UnstructuredGrid" version="0.1" byte_order="LittleEndian">
  <UnstructuredGrid>
    <Piece NumberOfPoints="9989" NumberOfCells="19506">
      <Points>
        <DataArray type = "Float64" NumberOfComponents="3" format="ascii">
3.5 2.00105 0.0 
3.5 1.99895 0.0 
0 0 0.0 
12 0 0.0 
0 4 0.0 
12 4 0.0 
3.65956 2.90875 0.0 
12 0.987921 0.0 
3.61685 3.15777 0.0 
4.76515 1.91897 0.0 
3.46822 2.00422 0.0 
3.4492 2.00609 0.0 
9.75011 0.429191 0.0 
8.77373 3.58908 0.0 
3.4284 2.00811 0.0 
4.2924 2.85568 0.0 
3.40943 2.00992 0.0 
6.17665 0.10795 0.0 
3.39055 2.01171 0.0 
10.5646 0.785159 0.0 
3.37064 2.01358 0.0 
5.64077 0.511818 0.0 
9.20388 0.750713 0.0 
1.98766 0.466428 0.0 
3.3441 2.01602 0.0 
2.82663 1.93122 0.0 
3.32932 2.01737 0.0 
3.31416 2.01873 0.0 
4.37488 2.8901 0.0 
3.30101 2.01991 0.0 
1.67615 0.889325 0.0 
7.53607 2.98683 0.0 
3.28104 2.02167 0.0 
11.443 2.87979 0.0 
3.26112 2.02341 0.0 
7.27082 2.03327 0.0 
7.00257 2.02554 0.0 
3.94163 1.77293 0.0 
3.23123 2.02597 0.0 
6.49446 2.23798 0.0 
8.28155 1.27045 0.0 
3.21131 2.02765 0.0 
3.20135 2.02848 0.0 
3.18889 2.02951 0.0 
3.17635 2.03053 0.0 
0.759789 2.22952 0.0 
4.81259 3.69937 0.0 
3.16034 2.03183 0.0 
3.15052 2.03262 0.0 
0.628639 2.20506 0.0 
5.05026 3.1405 0.0 
3.13957 2.03349 0.0 
5.46784 2.95773 0.0 
3.1296 2.03426 0.0 
1.67664 2.46937 0.0 
3.12171 2.03487 0.0 
9.13304 3.39056 0.0 
3.11166 2.03562 0.0 
5.38337 1.70516 0.0 
3.10169 2.03635 0.0 
8.08727 1.03907 0.0 
3.0922 2.03704 0.0 
9.87757 2.91797 0.0 
3.08224 2.03774 0.0 
6.05081 2.99563 0.0 
3.07177 2.03847 0.0 
3.05986 2.03927 0.0 
3.04983 2.03993 0.0 
12 0.741112 0.0 
3.03985 2.04058 0.0 
4.30691 0 0.0 
3.02987 2.04121 0.0 
8.66013 2.72876 0.0 
3.0199 2.04182 0.0 
3.00992 2.04242 0.0 
7.52373 4 0.0 
3.00193 2.04289 0.0 
5.28734 0.495776 0.0 
6.92709 2.09023 0.0 
2.98711 2.04373 0.0 
12 0.247098 0.0 
2.97747 2.04427 0.0 
8.24797 3.03812 0.0 
2.96958 2.04469 0.0 
3.47062 0 0.0 
2.96201 2.04509 0.0 
3.23761 2.72517 0.0 
2.95043 2.04569 0.0 
9.9963 2.9126 0.0 
2.94005 2.0462 0.0 
2.93089 2.04665 0.0 
5.57477 0.609357 0.0 
6.2157 1.68364 0.0 
2.92007 2.04715 0.0 
9.25464 2.64568 0.0 
2.91208 2.04752 0.0 
4.90901 0.0899404 0.0 
10.8572 2.96282 0.0 
2.8996 2.04807 0.0 
2.8946 2.04828 0.0 
8.13323 0.520161 0.0 
2.88961 2.04847 0.0 
3.37468 3.0411 0.0 
2.88461 2.04866 0.0 
2.88003 2.04882 0.0 
6.76476 4 0.0 
3.26708 0.976183 0.0 
2.87462 2.04899 0.0 
3.57743 2.26866 0.0 
2.86962 2.04914 0.0 
6.52954 2.17864 0.0 
2.71615 2.05663 0.0 
2.85755 2.04945 0.0 
2.86213 2.04934 0.0 
8.62477 0 0.0 
11.0785 1.20913 0.0 
2.85213 2.04957 0.0 
1.77956 1.9754 0.0 
2.84714 2.04967 0.0 
6.22741 2.35863 0.0 
2.84214 2.04975 0.0 
2.83714 2.04983 0.0 
3.0879 1.86808 0.0 
2.7008 2.0473 0.0 
2.83214 2.04989 0.0 
2.82714 2.04994 0.0 
8.78943 4 0.0 
2.81965 2.04999 0.0 
2.82215 2.04997 0.0 
5.55983 1.18487 0.0 
3.27945 1.28524 0.0 
2.81215 2.05001 0.0 
2.80472 2.05001 0.0 
2.79507 2.04997 0.0 
2.79965 2.05 0.0 
9.84276 1.78013 0.0 
10.3163 2.57643 0.0 
2.78966 2.04993 0.0 
12 0.494141 0.0 
2.78466 2.04988 0.0 
9.45522 2.67434 0.0 
2.77966 2.04982 0.0 
7.88728 1.90278 0.0 
2.77466 2.04975 0.0 
3.18615 2.99351 0.0 
2.77216 2.04971 0.0 
2.76716 2.04961 0.0 
2.76467 2.04956 0.0 
8.49528 2.50007 0.0 
2.75967 2.04946 0.0 
2.75467 2.04934 0.0 
3.5344 1.50295 0.0 
2.74967 2.0492 0.0 
4.99407 2.24328 0.0 
2.74468 2.04906 0.0 
9.51856 2.75585 0.0 
2.73968 2.04891 0.0 
2.73469 2.04874 0.0 
9.41426 2.76593 0.0 
2.73219 2.04865 0.0 
2.72719 2.04847 0.0 
2.72261 2.04829 0.0 
7.07481 1.96072 0.0 
5.00775 1.52929 0.0 
2.7172 2.04806 0.0 
8.83747 2.67733 0.0 
3.75899 1.38527 0.0 
2.71221 2.04785 0.0 
5.54545 3.74292 0.0 
2.70472 2.0475 0.0 
2.67763 2.04605 0.0 
2.69045 2.04677 0.0 
2.69475 2.047 0.0 
6.62286 2.79864 0.0 
5.00653 3.21625 0.0 
2.68477 2.04646 0.0 
2.7532 1.15196 0.0 
8.44318 0.81317 0.0 
2.67479 2.04588 0.0 
9.04251 2.70224 0.0 
2.66978 2.04558 0.0 
2.6648 2.04526 0.0 
9.48102 3.02398 0.0 
2.65981 2.04494 0.0 
8.79605 3.01706 0.0 
2.65482 2.04461 0.0 
2.38028 1.40227 0.0 
2.64741 2.04409 0.0 
8.98557 2.77888 0.0 
7.99404 0.835602 0.0 
2.63986 2.04355 0.0 
8.28014 0.713082 0.0 
2.63239 2.04298 0.0 
4.07099 1.85061 0.0 
2.62498 2.0424 0.0 
8.23459 1.16471 0.0 
2.62242 2.0422 0.0 
4.93463 3.70171 0.0 
2.61495 2.04158 0.0 
9.08968 2.78231 0.0 
2.60755 2.04095 0.0 
9.42671 3.11439 0.0 
6.67586 2.27382 0.0 
2.60001 2.04028 0.0 
2.59189 2.05808 0.0 
2.58798 2.03916 0.0 
2.59254 2.03959 0.0 
3.75 4 0.0 
1.84559 1.0322 0.0 
8.97315 2.9414 0.0 
2.58259 2.03864 0.0 
9.42058 2.93769 0.0 
5.22457 1.81468 0.0 
2.57513 2.0379 0.0 
2.57264 2.03764 0.0 
2.57016 2.03735 0.0 
2.56768 2.03702 0.0 
2.56522 2.03662 0.0 
2.56276 2.03616 0.0 
2.56031 2.03565 0.0 
2.55788 2.03508 0.0 
2.55546 2.03446 0.0 
2.55305 2.03379 0.0 
2.55066 2.03307 0.0 
2.54828 2.0323 0.0 
2.54592 2.03148 0.0 
2.54357 2.03062 0.0 
2.54124 2.02971 0.0 
2.53893 2.02876 0.0 
2.53664 2.02777 0.0 
2.53436 2.02674 0.0 
2.5321 2.02567 0.0 
2.52986 2.02456 0.0 
2.52764 2.02342 0.0 
2.52544 2.02224 0.0 
2.52325 2.02103 0.0 
2.52108 2.01978 0.0 
2.51893 2.01851 0.0 
2.5168 2.0172 0.0 
2.51469 2.01587 0.0 
2.51259 2.01451 0.0 
2.51052 2.01312 0.0 
2.50845 2.0117 0.0 
2.50644 2.01022 0.0 
2.50456 2.00858 0.0 
2.50283 2.00678 0.0 
2.50139 2.00474 0.0 
2.50037 2.00246 0.0 
2.5 2 0.0 
2.50037 1.99754 0.0 
2.50139 1.99526 0.0 
2.50283 1.99322 0.0 
2.50456 1.99142 0.0 
2.50644 1.98978 0.0 
2.50845 1.9883 0.0 
2.51052 1.98688 0.0 
2.51259 1.98549 0.0 
2.51469 1.98413 0.0 
2.5168 1.9828 0.0 
2.51893 1.98149 0.0 
2.52108 1.98022 0.0 
2.52325 1.97897 0.0 
2.52544 1.97776 0.0 
2.52764 1.97658 0.0 
2.52986 1.97544 0.0 
2.5321 1.97433 0.0 
2.53436 1.97326 0.0 
2.53664 1.97223 0.0 
2.53893 1.97124 0.0 
2.54124 1.97029 0.0 
2.54357 1.96938 0.0 
2.54592 1.96852 0.0 
2.54828 1.9677 0.0 
2.55066 1.96693 0.0 
2.55305 1.96621 0.0 
2.55546 1.96554 0.0 
2.55788 1.96492 0.0 
2.56031 1.96435 0.0 
2.56276 1.96384 0.0 
2.56522 1.96338 0.0 
2.56768 1.96298 0.0 
2.57016 1.96265 0.0 
2.57264 1.96236 0.0 
2.57513 1.9621 0.0 
2.58259 1.96136 0.0 
4.69913 0.486796 0.0 
2.58998 1.96065 0.0 
4.50009 4 0.0 
2.59503 1.96018 0.0 
2.60001 1.95972 0.0 
5.25292 2.73355 0.0 
2.60499 1.95928 0.0 
2.60997 1.95884 0.0 
7.9704 1.8341 0.0 
2.61495 1.95842 0.0 
2.61993 1.95801 0.0 
6.67775 2.38383 0.0 
2.62491 1.9576 0.0 
2.62989 1.95721 0.0 
6.05757 2.47597 0.0 
2.63488 1.95683 0.0 
2.63986 1.95645 0.0 
2.64485 1.95609 0.0 
4.49088 0.755642 0.0 
2.64983 1.95574 0.0 
2.6623 1.9549 0.0 
2.65482 1.95539 0.0 
2.65981 1.95506 0.0 
8.17613 1.24546 0.0 
5.80287 3.70372 0.0 
2.66729 1.95458 0.0 
11.2956 1.25205 0.0 
8.33045 1.37709 0.0 
2.67228 1.95427 0.0 
2.67727 1.95397 0.0 
8.77818 2.48508 0.0 
2.68475 1.95354 0.0 
1.85787 1.94567 0.0 
2.69217 1.95314 0.0 
11.1454 3.21 0.0 
2.69723 1.95288 0.0 
2.69973 1.95275 0.0 
3.70092 2.08806 0.0 
2.70715 1.95239 0.0 
2.3525 2.70049 0.0 
3.48692 3.06634 0.0 
2.71221 1.95215 0.0 
2.7172 1.95194 0.0 
6.49351 3.12279 0.0 
2.7222 1.95173 0.0 
6.56426 2.37578 0.0 
2.72719 1.95153 0.0 
4.47693 1.13364 0.0 
10.5184 4 0.0 
2.73219 1.95135 0.0 
2.73718 1.95118 0.0 
3.68248 0 0.0 
6.4623 3.19296 0.0 
2.74218 1.95102 0.0 
3.62872 1.98176 0.0 
2.74967 1.9508 0.0 
2.76007 1.95054 0.0 
2.7571 1.9506 0.0 
4.25002 4 0.0 
1.27321 0 0.0 
2.76467 1.95043 0.0 
2.76966 1.95034 0.0 
6.6018 2.00745 0.0 
2.77216 1.95029 0.0 
2.77716 1.95021 0.0 
2.77966 1.95018 0.0 
2.78466 1.95012 0.0 
2.79209 1.95005 0.0 
2.51663 2.44619 0.0 
2.79715 1.95001 0.0 
5.11022 1.87216 0.0 
2.61244 1.43557 0.0 
2.80215 1.94999 0.0 
2.80715 1.94998 0.0 
3.19326 0.933986 0.0 
2.81215 1.94999 0.0 
2.81715 1.95 0.0 
5.32292 2.82708 0.0 
6.537 2.04355 0.0 
6.68926 3.20215 0.0 
2.82215 1.95003 0.0 
2.82714 1.95006 0.0 
2.82964 1.95009 0.0 
12 2.76485 0.0 
2.83707 1.95017 0.0 
2.84464 1.95029 0.0 
2.84964 1.95038 0.0 
3.00408 0.819119 0.0 
2.85463 1.95048 0.0 
4.54367 2.04622 0.0 
2.85084 1.92195 0.0 
2.86213 1.95066 0.0 
2.86713 1.95079 0.0 
1.77781 2.79934 0.0 
2.87212 1.95093 0.0 
2.87712 1.95109 0.0 
2.41131 2.52652 0.0 
2.88211 1.95125 0.0 
4.05899 1.64898 0.0 
2.88711 1.95143 0.0 
2.29923 2.40754 0.0 
2.8921 1.95162 0.0 
12 1.23459 0.0 
2.8971 1.95183 0.0 
4.49549 2.33546 0.0 
2.90417 1.95213 0.0 
2.91208 1.95248 0.0 
1.484 1.47851 0.0 
2.92207 1.95294 0.0 
11.6154 4 0.0 
2.93157 1.95339 0.0 
1.73985 0 0.0 
2.94154 1.95387 0.0 
2.95152 1.95437 0.0 
4 4 0.0 
2.96201 1.95491 0.0 
5.17242 3.51428 0.0 
2.9715 1.95541 0.0 
3.08149 0.951037 0.0 
2.98147 1.95595 0.0 
0.966707 1.21788 0.0 
2.99145 1.95651 0.0 
7.52077 1.95244 0.0 
3.00193 1.95711 0.0 
5.50149 4 0.0 
3.01143 1.95767 0.0 
9.80284 0 0.0 
3.02139 1.95827 0.0 
7.95524 3.64623 0.0 
3.03137 1.95889 0.0 
6.26631 2.54289 0.0 
3.04135 1.95952 0.0 
8.95803 0.965304 0.0 
3.05132 1.96016 0.0 
6.42769 2.27409 0.0 
3.0618 1.96086 0.0 
6.67764 1.24793 0.0 
3.07177 1.96153 0.0 
0.769062 1.4551 0.0 
3.08126 1.96219 0.0 
2.47654 3.16719 0.0 
3.09172 1.96293 0.0 
3.09837 1.96341 0.0 
10.1159 4 0.0 
5.10992 3.21149 0.0 
3.11166 1.96438 0.0 
5.90872 0.821803 0.0 
3.12114 1.96509 0.0 
3.1311 1.96585 0.0 
6.86748 2.2434 0.0 
3.14156 1.96667 0.0 
1.43681 2.05139 0.0 
3.15104 1.96742 0.0 
1.71102 1.35069 0.0 
6.00611 4 0.0 
3.17146 1.96907 0.0 
6.44021 2.18497 0.0 
3.18336 1.97004 0.0 
2.77923 1.93806 0.0 
3.20135 1.97152 0.0 
3.22072 1.97314 0.0 
2.02398 3.14909 0.0 
2.37906 2.59073 0.0 
3.23123 1.97403 0.0 
2.49238 1.20869 0.0 
3.24555 1.97525 0.0 
8.58402 0.30847 0.0 
3.26112 1.97659 0.0 
5.77845 1.60796 0.0 
4.65212 1.42545 0.0 
3.28104 1.97833 0.0 
3.03281 0.591236 0.0 
1.96766 1.68156 0.0 
3.30038 1.98003 0.0 
8.26583 1.45566 0.0 
1.84587 0.84683 0.0 
3.31787 1.9816 0.0 
1.91371 3.11276 0.0 
3.33233 1.9829 0.0 
8.37767 1.48423 0.0 
8.68938 1.7583 0.0 
3.35073 1.98458 0.0 
1.50522 0 0.0 
3.37064 1.98642 0.0 
1.04781 0 0.0 
1.85135 1.10186 0.0 
3.39055 1.98829 0.0 
8.22608 1.63221 0.0 
10.3114 4 0.0 
3.41483 1.99059 0.0 
6.59792 1.73349 0.0 
3.42937 1.99199 0.0 
4.183 0.916814 0.0 
[...]
<PointData>
  <DataArray type = "Float64" Name="BLMLevelSetLayer1" format="ascii">
0.148517
0.148517
-3.05117
-8.58337
-3.05117
-8.58337
-0.773104
-8.4114
-1.0141
-1.11916
0.148517
0.148518
-6.29571
-5.35912
0.148517
-1.01694
0.148517
-3.12873
0.148517
-7.01957
0.148517
-2.4581
-5.69034
-1.45395
0.148517
0.129675
0.148517
0.148517
-1.09881
0.148518
-1.23006
-4.00619
0.148517
-7.84294
0.148517
-3.62244
-3.35413
-0.347591
0.148517
-2.8553
-4.68821
0.148517
0.148517
0.148516
0.148518
-1.60753
-1.99792
0.148517
0.148518
-1.73491
-1.77545
0.148516
-2.03955
0.148516
-0.798106
0.148517
-5.65337
0.148517
-1.75763
0.148517
-4.53811
0.148517
-6.29463
0.148517
-2.58934
0.148517
0.148516
0.148516
-8.44405
0.148516
-2.00715
0.148516
-5.06267
0.148516
0.148516
-4.34439
0.148517
-2.18689
-3.27973
0.148515
-8.53013
0.148516
-4.71139
0.148516
-1.83882
0.148517
-0.548798
0.148517
-6.41143
0.148516
0.148518
-2.34861
-2.58543
0.148516
-5.64211
0.148517
-2.22417
-7.27128
0.148513
0.148513
-4.71498
0.148513
-0.875195
0.148513
0.148515
-3.6796
-0.848858
0.148513
-0.130071
0.148513
-2.88623
0.139907
0.148513
0.148517
-5.35231
-7.47102
0.148517
-0.573585
0.148512
-2.60223
0.148517
0.148512
0.0541778
0.148517
0.148517
0.148512
-5.50603
0.148513
0.148517
-2.06635
-0.54189
0.148517
0.148513
0.148514
0.148513
-6.19802
-6.69204
0.148513
-8.48366
0.148513
-5.84465
0.148513
-4.23982
0.148513
-0.812265
0.148517
0.148512
0.148513
-4.87162
0.148512
0.148513
-0.348443
0.148513
-1.36506
0.148513
-5.91719
0.148513
0.148513
-5.815
0.148517
0.148512
0.148518
-3.4265
-1.43069
0.148512
-5.23163
-0.517576
0.148517
-2.53811
0.148514
0.148515
0.148516
0.148514
-3.07459
-1.78704
0.148514
-0.650034
-4.93489
0.148514
-5.43817
0.148513
0.148514
-5.91935
0.148514
-5.24411
0.148514
-0.4413
0.148513
-5.39193
-4.49365
0.148513
-4.80156
0.148517
-0.441432
0.148514
-4.65901
0.148517
-2.07643
0.148514
-5.49549
0.148512
-5.88185
-3.03904
0.148513
0.130046
0.148513
0.148517
-1.86601
-1.01488
-5.40482
0.148517
-5.84569
-1.58587
0.148507
0.148517
0.148435
0.1484
0.14843
0.148517
0.148435
0.148408
0.148436
0.148517
0.148442
0.148417
0.148443
0.148517
0.148449
0.148427
0.14845
0.148517
0.148456
0.148436
0.148457
0.148517
0.148462
0.148445
0.148463
0.148517
0.148468
0.148448
0.148471
0.148517
0.148163
0.148005
0.148083
0.148517
0.147504
0.14713
0.147504
0.148517
0.148083
0.148005
0.148163
0.148517
0.148471
0.148448
0.148468
0.148517
0.148463
0.148445
0.148462
0.148517
0.148457
0.148436
0.148456
0.148517
0.14845
0.148427
0.148449
0.148517
0.148443
0.148417
0.148442
0.148517
0.148436
0.148408
0.148435
0.148517
0.14843
0.1484
0.148435
0.148517
0.148507
0.148517
-1.78139
0.148514
-2.08665
0.148513
0.148513
-1.7513
0.148513
0.148513
-4.32492
0.148513
0.148514
-3.0522
0.148513
0.148514
-2.45277
0.148513
0.148514
0.148514
-1.44135
0.148514
0.148518
0.148513
0.148514
-4.58793
-2.71544
0.148512
-7.68278
-4.7218
0.148517
0.148512
-5.15181
0.148513
-0.49691
0.148517
-7.59186
0.148513
0.148514
-0.0704339
0.148513
-0.547691
-0.910498
0.148517
0.148512
-3.04826
0.148517
-2.93857
0.148512
-1.15653
-7.14902
0.148517
0.148512
-1.85867
-3.04458
0.148517
0.0186544
0.148513
0.148515
0.148512
-1.98651
-2.192
0.148512
0.148513
-2.95329
0.148517
0.148512
0.148513
0.148513
0.148518
-0.263848
0.148512
-1.46669
-0.372996
0.148517
0.148512
-0.885094
0.148517
0.148512
-1.85282
-2.88878
-3.25941
0.148517
0.148512
0.148513
-8.38573
0.148512
0.148512
0.148513
-0.98794
0.148513
-0.896131
0.120063
0.148517
0.148512
-0.925824
0.148517
0.148512
-0.364198
0.148517
-0.510991
0.148512
-0.298278
0.148517
-8.38578
0.148512
-0.901635
0.148516
0.148517
-0.992582
0.148517
-8.20945
0.148517
-1.97855
0.148517
0.148517
-1.91202
0.148517
-2.10689
0.148517
-0.860509
0.148517
-1.57182
0.148517
-3.87252
0.148517
-2.68022
0.148517
-6.46372
0.148517
-4.60078
0.148517
-2.67036
0.148517
-5.40653
0.148517
-2.79188
0.148517
-3.11667
0.148517
-1.66607
0.148517
-0.985004
0.148517
0.148516
-6.76274
-1.86569
0.148517
-2.53245
0.148517
0.148517
-3.22768
0.148517
-0.917079
0.148517
-0.871361
-3.05716
0.148517
-2.79744
0.148517
0.136388
0.148517
0.148518
-1.08443
-0.434967
0.148517
-0.609414
0.148516
-5.20918
0.148517
-2.16323
-1.13845
0.148517
-1.21699
-0.470568
0.148517
-4.64818
-1.17079
0.148516
-1.10186
0.148517
-4.75624
-5.04644
0.148517
-2.07688
0.148517
-2.31863
-0.954914
0.148517
-4.59177
-6.95013
0.148516
-2.96075
0.148517
-1.13113
0.148516
-4.91125
-3.26606
0.148517
-0.292894
-1.88566
-0.911087
-2.85977
-2.67754
-1.81139
-0.819793
-0.482885
0.126595
-1.89973
-0.463792
-0.89831
-2.67871
-5.50189
-0.55931
-2.31334
-2.09217
-2.20018
-0.1823
-4.72536
-1.53415
-4.48191
-3.1688
-4.02459
-0.424308
-7.35072
-7.76083
-3.92274
-5.13104
-3.18228
-0.275274
-4.80284
-6.957
-3.28033
-0.961568
-0.0294645
-2.47093
-6.71429
-0.916605
-8.07207
-1.75073
-8.38697
-0.677381
-1.2707
-3.92443
-1.80262
-3.79385
-8.35153
-8.35349
-8.3402
-1.91925
-3.06006
-1.00201
-0.290049
-1.14023
-8.41646
0.0771622
-2.40143
-7.55408
-3.80878
-0.327226
0.126095
-8.44275
-8.48264
-8.52955
-7.85513
-0.857308
-3.04435
-0.553254
-0.632678
-2.44927
-0.219804
-2.77032
-1.04142
-1.44123
-2.51233
-0.625224
-0.722933
0.00824331
-6.26852
-3.26056
-1.71167
-1.9913
-1.12372
-1.09397
-0.34049
-2.08784
-1.80366
0.111736
-1.8311
-3.9602
-2.78151
-2.83319
-4.62994
-0.872619
-5.10823
-2.20757
-1.80219
-1.0552
-1.82072
-0.416865
-0.650394
-2.90154
-2.40035
-2.67754
0.0604281
-2.31043
-2.34724
-2.50582
-1.07477
0.102829
-2.85977
-0.498647
-3.9286
-2.96459
-2.25327
-1.19358
-2.90154
-2.36486
-2.35287
-2.36486
-6.35095
-2.46153
-2.5436
-2.64569
-2.76571
0.0875562
-5.53836
-2.90413
-5.11413
-0.741679
-1.76163
-7.38696
-0.639292
-5.72903
-0.743025
-3.03556
-2.63639
-1.86711
-4.82184
-0.852083
-5.96753
-6.27879
-5.94177
-5.38994
-2.8374
-3.36517
0.106185
-1.67858
-7.52885
-0.631963
-2.66949
-0.299684
-3.72261
-2.43046
-6.92764
-5.19244
-0.461788
-4.70525
-0.325009
-6.07853
-4.65803
-1.78359
-2.91814
-0.75111
-2.63075
-3.22629
-7.75608
-6.33824
-4.96459
-1.59539
0.0775254
-0.806541
-2.39807
-1.76137
-0.678231
-1.18239
-5.06369
-3.23066
-2.85515
-0.163644
-5.41076
-1.93643
-0.937187
-0.632947
-1.85091
-5.11673
-0.390402
-0.0716679
-0.32171
-0.397237
0.0505741
-5.16175
-5.28836
-1.41857
-5.18413
-3.67086
-4.17906
-1.65587
-1.02649
-4.09874
-2.99966
-2.99427
-3.20624
-1.66086
-0.265052
-0.622621
-4.54706
0.0996518
-3.20356
-2.98538
-4.81929
-2.96876
-3.08793
-0.243534
-0.143912
0.0367609
-1.03258
-5.12451
-4.90697
-3.52279
0.0199839
-2.82375
-4.61793
-4.92335
-0.899591
0.107356
-3.28479
-3.02112
-1.43313
-3.7363
0.0804714
-2.30024
-1.01248
-2.84469
-6.74656
-3.83507
-2.5415
0.0832641
-0.73259
-3.38307
-1.05099
0.0969173
-2.08638
-0.51153
-1.03423
-4.45826
-2.71432
0.134279
0.14634
-3.40964
-4.93231
-0.994518
-2.74602
-1.4994
-0.469713
-1.50887
0.0644166
-4.97173
-2.40062
-0.753011
-5.23291
-7.75238
0.130701
0.134478
-2.6663
-4.81806
-0.910361
-4.47025
0.120432
0.078866
-0.564138
-4.59071
-4.52207
-2.90677
-3.45474
-4.79009
-2.76876
-2.3051
-4.86596
-5.01099
-7.21523
-1.75493
-1.58173
-1.67363
-2.63528
-0.191235
-2.79117
-1.52964
-2.79852
-0.843719
-0.514337
-0.369251
-5.06919
-0.61719
-6.47806
-3.80394
-8.32031
-3.47401
-4.57238
0.0736511
-3.26018
0.0733246
-2.12857
-6.02708
-2.83693
0.020109
-1.34129
-2.6969
-1.93192
-0.181841
-2.00776
-2.804
-0.943132
-0.423873
-4.58694
-1.17801
-3.1902
-6.338
-1.35155
-0.328923
-1.75515
-0.354502
-2.27478
-1.20952
-0.190941
-0.716027
-6.53107
-0.523979
-0.735108
-4.45112
-1.28406
-2.4951
-0.464826
-2.87451
-0.249962
-0.651034
-0.716995
0.0739931
-1.92723
-8.11886
0.11119
-0.987429
-7.60794
0.104766
-1.54272
-0.071212
-1.34956
0.0573816
-0.255729
-0.270801
-4.11927
-7.53968
-0.665956
-7.99521
-3.49778
-7.82428
0.0144497
-2.06369
-0.161957
-8.0304
-1.53725
-1.16645
-7.77862
-4.3263
-8.1088
-0.680775
-3.35453
-1.39623
-3.16093
-1.23049
-7.99375
-3.09353
-1.92972
-2.22081
-0.910651
-6.35052
-0.167269
-0.21765
-0.199621
-1.43059
-2.50938
-5.00158
-5.58413
-0.0514481
-6.92184
-3.43062
-8.26053
-5.02811
-8.27723
-1.10346
-2.38978
-0.157937
-0.105742
-2.3962
-4.32317
0.133259
-3.03373
-3.23911
0.116229
-1.4618
-2.42276
-0.285207
-0.776153
-2.47952
-0.9638
-2.4061
-0.769044
-1.06949
-1.24372
-1.6062
-1.87678
-3.53306
-0.685
-0.606357
-1.58491
-3.08725
-1.13397
-2.20553
-1.32517
-1.66356
-0.395653
0.08658
-0.982581
-6.61591
-0.796557
-0.693363
-3.25849
-1.3751
-1.19787
-5.08262
-1.13859
-0.400159
-2.03544
-0.9346
-0.66871
-1.72956
-0.972515
-6.59386
-6.07457
-0.252074
-1.99774
-2.71886
-0.382133
0.119464
-2.20537
-1.40205
-0.231249
-0.583357
-5.20812
-0.528647
-1.61317
0.0890528
-4.93875
-1.67777
-5.09704
0.0232732
-0.876449
-1.40544
-0.900716
-6.26107
-1.54609
0.0225302
-2.98386
-1.98181
-0.92895
-4.9756
-0.231137
-5.08068
-3.15411
-0.363127
-4.89107
-1.86029
-6.27273
-2.92697
-1.42972
-3.19147
-1.36571
-0.53401
-6.54055
-2.02626
-2.62416
-3.89748
-2.58527
0.106927
-0.146521
-0.488006
-1.14845
-2.31051
-2.01999
-3.46632
-2.21854
0.0848939
-2.27708
0.134655
-0.721692
-0.132088
-1.28637
-1.47913
0.0508493
-3.27112
-2.48299
-3.13626
-0.998837
-3.26508
-0.341666
-0.00465049
-1.82349
-1.20604
0.13119
-1.84529
-0.706568
-1.01896
-0.467653
-2.95932
-1.33181
-1.81703
-4.61168
-4.39156
-5.38204
-3.9509
-2.78067
-1.33922
-2.84036
-0.344182
-1.89006
-1.98289
-5.77847
-2.28806
-3.7451
-2.36418
-2.80969
-2.10631
-1.32205
-0.240942
-0.860419
-0.421565
-0.56227
-0.860406
0.1396
-0.582787
-0.34702
-0.515326
-0.412355
-1.04583
-2.03334
-2.93767
-0.362064
-0.901369
-0.678558
-2.66201
-2.68391
0.0625646
0.117229
-0.0902828
-2.41413
-0.738724
-2.09588
-2.04275
-0.326413
-2.17655
-0.99392
-0.308447
-0.848055
0.109623
-0.334518
-3.15694
-0.11084
-2.44324
-0.696045
-1.46944
-1.45402
-0.386
-2.3305
-0.810088
-1.16524
-0.479447
-0.363393
-1.49885
-1.7286
-0.969121
-2.3524
-3.22749
-5.66865
-0.438547
-0.312749
-0.52855
-2.04583
-2.13172
-2.30057
-5.82909
-3.82968
-1.02803
-4.26155
-3.49991
-3.33347
-1.37957
0.00883901
-2.03447
0.0398912
-6.3869
-5.24135
-0.744823
-2.73963
-4.37154
-0.767164
-0.276183
-0.548277
-3.58431
-0.385701
-0.750966
-0.680393
-1.34381
-2.33349
-1.0469
-3.56762
-0.00582772
-0.7582
-1.34266
-0.102537
-7.04361
-4.06076
-0.744853
-1.12932
-0.842267
-2.09015
-0.782195
-1.97527
-0.255388
-0.57284
-1.31704
0.109376
-2.21611
-6.57337
-3.24802
-3.03882
-1.72105
0.139513
-1.17299
-0.261828
0.124417
-1.21666
-0.484175
-1.52769
-0.788389
-0.779416
-6.5888
-5.55984
-2.42812
-1.41729
-6.14027
-1.23959
-0.653945
-4.49546
-3.19793
-2.10681
-1.39892
-0.388213
-2.6389
-6.80774
-0.553078
-3.02568
-0.572461
-0.365997
-7.19204
-2.0229
-3.50744
-5.23441
-0.890136
-5.27713
0.113495
-0.25247
0.0641746
-6.68209
-0.991007
-3.40687
-0.125027
-0.718089
-6.63162
0.119424
-0.601323
-0.659683
-4.95612
-0.54792
-0.616829
-0.552609
-6.0074
-3.91011
-0.94434
-4.29337
-0.806753
-1.57214
-0.44407
-2.33721
-0.855274
-1.33342
-1.34333
-2.85542
-3.14456
-1.81548
-0.836155
-0.96295
-1.80414
-4.04661
-0.427102
0.0740122
-3.91267
-0.584885
-7.7005
-5.8246
-0.594731
-6.9155
-3.50336
-2.25957
-3.08914
-0.75089
-0.730505
0.0613093
-4.8281
-1.1329
-0.422573
-0.672053
-1.73494
-7.55623
-0.798194
0.104954
-0.892531
-0.823369
-0.758577
-0.32527
-2.11375
-2.93216
-3.63007
-0.602119
-3.94485
-1.55285
-1.01344
-1.23716
-0.548692
-0.836586
-3.38502
0.02679
-3.56572
-1.11043
-3.23722
-3.84952
0.11748
0.132035
-0.928187
-4.23606
-6.55849
-1.14307
-5.38482
-0.514193
-0.698069
-0.837609
-0.886176
-6.56742
-0.65157
-3.68376
-7.55543
-0.484287
0.141883
-1.13722
-2.1252
-0.595715
-7.3473
0.100687
-4.65106
-1.97691
-3.70063
0.0879085
-0.504192
-2.12199
-7.80762
-7.42574
-0.505186
-7.4263
0.13808
-4.51782
0.144218
-1.22255
-1.87787
-0.419195
-4.78881
-7.64716
-8.04033
-3.57234
0.071993
-2.51802
-3.04237
-4.36887
-1.51633
-8.25578
-7.75034
-0.752156
-0.370059
0.13907
-0.42327
0.117502
-0.574709
-2.14054
-7.94788
-7.57727
-0.245886
-0.593263
-0.949226
-1.58444
-0.552276
-1.21843
-2.3432
-0.88186
-7.86069
-5.03545
-6.28969
-0.349384
-3.11096
-0.373242
-2.26056
-7.27252
-4.09956
0.0599966
-3.80991
-0.225804
-3.01905
-4.67129
-8.13233
-0.705299
-0.55806
-7.88942
-3.8412
-7.943
0.124017
-0.858296
-4.77959
-3.13233
-0.609114
0.116868
-1.92461
-3.56253
-0.726837
-4.90932
-5.66788
-0.776431
-0.771877
-4.03894
-4.02049
-5.17146
-1.85433
-0.709928
-2.21975
-7.21559
-5.81535
-6.44905
-0.0507483
-3.36166
0.115123
-7.16434
-0.307013
-3.45838
-0.76355
-1.92616
-2.9851
-4.86402
-2.00815
-8.16193
-3.34639
-3.01782
-0.312377
-8.09699
0.136442
-0.308324
-3.19911
-1.52925
0.142528
-7.06672
-0.859049
-4.12872
-1.15406
-7.96922
-0.718984
-0.611152
-0.632758
-2.17935
-6.59152
-3.33756
-0.524719
-3.35257
-2.03356
-1.34169
-6.62126
-0.244756
-0.316187
-4.63124
-2.6665
-1.20491
-3.41313
-2.0247
-0.318463
-5.33882
-3.04387
-5.13775
-0.486506
-2.27802
-3.03756
-2.90093
-0.770207
-0.655245
-0.979958
-0.391099
-3.30804
-2.48784
0.134116
-2.63018
0.000114024
-0.683978
0.104456
-1.26634
-0.674425
-2.07575
-0.489659
-0.725366
-4.03587
-4.93039
-2.25921
-6.42563
-3.82558
-4.8607
0.143259
-0.712696
0.138
-0.847406
-0.605885
0.00074631
-4.51006
-2.86726
-3.81725
-4.71254
-1.9152
0.0475944
0.0621378
-0.330226
-2.2427
-2.94735
-4.66179
-3.64986
-4.19649
-2.1164
-2.67635
-5.80997
-0.852403
-3.60319
-4.08888
-0.967513
-0.506765
-0.585925
-7.9944
-0.386399
-4.49263
-4.0676
-0.234317
-0.412537
-2.50667
-4.01129
-6.88181
-2.87482
-2.60717
-0.819595
-4.341
-0.498206
-2.92065
-6.28752
-1.04304
-0.721858
0.129974
-1.67658
-4.346
-6.77097
-5.40483
-2.24704
-6.44105
-1.85672
-3.5645
-0.643184
-1.66275
-1.52182
-2.77877
0.0955761
-4.37124
-8.13996
-8.07834
-8.16397
-7.67476
-6.32186
-0.685094
-4.7073
-6.11056
-6.86728
-0.436458
-3.72769
-2.49728
0.142909
-0.866565
-1.01933
-1.70427
-3.04882
-6.49498
-4.34813
-0.134002
-2.0601
-2.5208
-1.5354
0.128331
0.143151
-4.1537
-3.03204
-2.42103
-2.99442
-2.42773
-0.546124
-0.222432
-4.73351
-3.92675
-2.59081
-0.729447
-2.5973
-1.28394
-1.47206
-3.39341
-4.31887
-1.28725
-4.39077
-1.08667
-1.00104
-1.59365
-0.857002
-4.98533
-4.28411
-6.88074
-1.09223
-5.03975
-4.21925
-0.387562
-4.90182
-3.15731
-1.15644
-0.561167
-1.52444
0.0947081
0.0678306
-0.527935
0.146387
-3.47988
-3.51334
-6.08394
-2.1473
-2.32402
-1.11182
-0.593782
-4.46387
-5.00135
-1.47495
-3.34237
-3.65175
-1.55182
-5.44785
-0.955612
-1.70583
-4.45087
-0.433581
-2.88751
-0.336277
-1.0871
-3.75525
-0.0237703
0.0678815
-4.76168
-6.20282
-6.79103
-0.742224
-0.641792
-0.400867
-2.18399
-3.86604
0.133562
-0.557452
-0.73964
-0.926562
0.145267
-4.60478
-6.98455
-0.295891
0.146802
-1.23978
-5.66795
-5.32468
-4.14655
-0.025033
-4.54367
0.137554
-0.422979
0.146683
-0.521437
-0.756315
-3.52424
-0.618113
-2.74915
-2.59511
0.112072
-0.91511
-2.51988
-0.0513233
-0.540913
-2.19149
-2.934
-2.76533
-6.28909
-5.65476
-0.0048378
-1.22598
-0.480096
-0.317609
-1.27757
-4.74062
-7.35558
-5.76208
-0.867093
-5.844
-1.28919
-5.76822
-1.25002
0.14852
-0.15188
-5.69051
-1.16178
-0.0609418
-0.632554
-4.64852
-5.52633
-1.90497
-7.61549
-4.89577
-2.81562
-1.23807
-0.530882
-0.470743
-0.696683
-1.00237
-7.36257
-0.658011
-1.14197
-4.44044
-0.514972
-0.698181
-3.96581
0.146252
-1.11049
-3.15241
-5.53817
-3.78801
0.136573
-6.9724
-2.6723
-2.70721
-1.65204
-0.751158
-7.56324
-0.37538
0.141702
-7.03392
-5.22546
-4.35845
-5.87416
-0.956785
-2.51979
-1.72234
-5.80633
-0.465731
-5.29236
-2.65115
-1.16576
-6.05686
-1.01458
-3.94133
-5.36509
-4.05319
-2.33752
-2.36253
0.143988
-4.95023
-5.76894
-1.72979
-4.1321
-1.25796
-5.92216
-0.822503
-2.52176
-6.65124
-3.55178
-6.78762
-5.46101
-5.96821
-6.0209
-6.15657
-6.16857
-1.00226
-1.07258
-2.3822
-1.02318
-0.914383
-5.9753
-0.655023
-6.24777
-6.2457
-6.03859
-6.00309
-6.14496
-3.31389
-0.671173
-0.680137
0.146777
-0.548026
-6.50273
-6.45439
-6.58319
-6.08585
-6.2974
-6.59056
-0.670556
-6.47811
0.147687
-6.62263
-1.00348
-6.35006
-3.31439
-5.69148
-5.18979
-2.58313
-3.78473
-5.39201
-0.763943
-3.97369
-5.33854
-2.57296
0.146854
-3.42013
-1.02432
-0.62374
-3.2217
-2.78586
-5.85043
-6.52394
-1.34435
-0.915128
-1.05177
-5.48755
-8.11407
-3.57832
-2.31505
-5.44223
-3.4082
-2.65951
-8.1724
-0.0195133
-6.45571
-8.20618
-7.71678
-1.2155
-7.99906
-2.73604
-4.74247
-2.99432
-0.593903
-4.49795
-2.58533
-3.02764
-0.0190174
-1.14827
-0.420344
-1.61272
-0.89966
-1.76391
-0.158347
-0.567346
-1.00974
0.136174
-1.24865
-2.89639
-2.35523
-2.47757
-2.92824
-3.51255
-2.80357
-3.33776
0.0968333
-0.996442
-1.50589
0.0369456
-0.548071
-0.4392
-1.11148
-0.420369
-2.11315
-3.48234
-1.9485
-3.59236
-1.38981
-2.82565
-0.410269
-1.15436
-0.674103
-0.952519
-5.92198
-1.2085
-6.55946
-1.22458
-0.550221
-2.99209
-0.563393
-0.897107
-1.63987
-1.09117
-1.05582
-3.21209
0.137357
-5.50387
-6.1804
-5.2903
-1.02495
-0.186262
-1.31694
-5.66305
-1.0348
-0.972983
-1.08841
-1.36443
-3.19539
0.0272105
-5.91155
0.128247
-3.91972
-4.21987
-1.27908
-0.917836
-6.16544
-0.988834
-6.51012
-2.96888
-4.31797
-0.810239
-7.23823
-0.861013
-2.22208
-2.03504
-1.10288
-2.47372
-2.69613
-1.39851
-0.480546
-0.669761
-1.06202
-1.00807
-2.16508
0.0221171
-2.15362
-3.33165
-1.8446
-4.86577
0.0490335
0.124882
-6.39014
-6.4656
-4.83354
-0.341108
0.147054
-0.814336
-6.69123
-1.34011
-5.4936
-1.00524
-0.669061
-0.832394
-1.93784
0.133267
-3.67186
-0.711175
-5.4918
-1.31065
-0.609836
-0.906832
-2.29521
-0.846879
-5.0949
-0.797992
-2.77058
-0.507687
-5.403
-3.6745
-1.55987
0.103127
-1.24369
-0.195529
-0.698849
0.0145093
0.12477
0.142371
0.132576
0.129204
-0.852765
-2.06726
0.131059
-5.0692
-4.41589
-0.967863
-0.665861
-0.0809723
-6.36775e-05
-0.658144
-5.38167
-0.465217
-5.15422
-0.882639
-1.75792
-0.5105
-1.87765
-1.44352
-1.80577
-5.051
0.12123
0.0735215
-5.22605
-0.955333
-1.96155
-4.9682
-2.21197
-0.911044
-1.19319
-0.877975
-2.30833
-0.307819
-1.95887
-5.85593
-1.41153
-1.03696
-4.80254
-0.856625
-2.50325
-0.736178
-2.67168
-0.597324
-1.7704
-0.468163
-0.675441
-1.00048
-0.802516
-5.26363
-3.62795
-1.63531
-7.01353
-4.11164
-5.59335
-0.714794
-0.616563
-0.772588
-1.47914
-0.801841
0.140488
-5.30649
-6.14579
-3.04212
-2.50891
-0.915697
-1.05636
-0.0303353
0.0640764
-1.24022
-0.200813
-1.4621
0.134368
0.0318768
-2.58108
-1.13906
-0.632544
-5.88481
-2.79845
-6.55263
-1.06057
-0.050522
-1.03286
0.0830303
-5.9138
-0.0390497
-0.37083
-1.20604
-3.57277
0.126726
-0.610141
0.140648
-0.00454962
-6.41821
-3.31607
-0.0701956
-0.0420187
-1.98211
0.0687055
0.129108
-0.0355501
-3.78445
-0.766922
-3.42142
0.136626
0.0380867
-7.18784
-1.11847
-0.0676935
-6.81264
-1.01883
-7.35125
-5.728
-0.659065
-0.990243
-1.29555
-5.07923
-5.03367
0.101183
-4.93326
-6.71103
-1.10917
-0.103167
-7.11698
-0.60188
-0.808505
-6.13873
-0.887949
-2.43747
-5.1545
-1.99356
-1.25604
-0.0608098
-2.35103
-7.50852
-2.59304
-2.12162
-5.80954
-0.52637
-2.52416
-0.706795
-2.15767
0.0200881
-0.208196
-0.120279
-2.11557
-2.27034
-5.88916
-5.86347
-0.0331876
-0.741356
-0.716482
-7.36414
-2.65279
-4.2662
0.142056
0.0597085
-1.16242
-0.0177162
-5.81269
0.0792026
-2.00342
-0.773162
-3.0834
0.0801071
-0.531422
-3.99726
-0.0341886
-0.88491
-7.12253
-1.43205
-1.47051
-7.98093
-0.777652
-0.495412
-0.0635641
-7.78623
-7.0585
-1.22997
-1.15354
-1.1693
-1.08951
-0.256072
-1.37372
-1.52984
-0.459117
-3.75004
-1.33089
-0.976949
0.00299744
-1.54442
-7.90636
-4.6314
-0.381913
0.13882
-0.220847
-1.29922
0.011596
-1.04579
-0.529169
0.147632
-2.43455
-1.01739
-6.4765
-1.27078
-0.898426
-1.28375
-1.75576
-1.58459
-0.320793
-8.08475
-1.74488
-1.7986
-0.437417
0.0731471
-0.970175
-0.781593
-1.10419
-0.639183
-0.0423299
-0.811691
-1.29002
-1.35304
-2.58049
-0.563153
-2.44104
-4.41321
-1.51896
-4.43474
-1.66952
-1.65589
-0.29975
-1.88896
-0.651604
-0.224423
-1.26963
-0.322749
-1.29125
-1.33122
-6.52538
-7.86614
0.0997527
-2.39573
-2.88207
-6.06737
-7.97864
-0.67797
-0.59538
-0.895317
-1.53303
-1.11291
-4.01255
-2.20182
-0.0176894
-4.11934
-0.903571
-4.0124
-2.54121
-4.48857
-0.215007
-2.47666
-4.51383
-4.52198
-3.31121
-0.313951
-4.07563
-0.227034
-6.98907
-0.0736315
-0.943356
-1.2493
-2.28378
-1.43424
0.0291354
-4.09489
-0.356945
-1.44995
-0.286016
-0.861869
-1.20421
0.128218
-1.4625
-0.757467