<VTKFile type="UnstructuredGrid" version="0.1" byte_order="LittleEndian">
  <UnstructuredGrid>
    <Piece NumberOfPoints="7448" NumberOfCells="14425">
      <Points>
        <DataArray type = "Float64" NumberOfComponents="3" format="ascii">
3.5 2.00105 0.0 
3.5 1.99895 0.0 
0 0 0.0 
12 0 0.0 
0 4 0.0 
12 4 0.0 
1.84154 2.93167 0.0 
7.02151 2.12151 0.0 
2.97433 1.93934 0.0 
2.3504 1.2816 0.0 
3.46822 2.00422 0.0 
3.4492 2.00609 0.0 
9.75011 0.429191 0.0 
4.04015 2.1502 0.0 
3.4284 2.00811 0.0 
3.08807 1.95055 0.0 
3.40943 2.00992 0.0 
5.75128 4 0.0 
3.39055 2.01171 0.0 
10.5646 0.785159 0.0 
3.37064 2.01358 0.0 
3.25402 2.03687 0.0 
2.88491 1.91715 0.0 
2.63054 0.838309 0.0 
3.3441 2.01602 0.0 
3.09521 2.05214 0.0 
3.32932 2.01737 0.0 
3.31416 2.01873 0.0 
3.36876 2.26764 0.0 
3.30101 2.01991 0.0 
2.00349 0.962811 0.0 
4.29539 2.8496 0.0 
3.28104 2.02167 0.0 
11.443 2.87979 0.0 
3.26112 2.02341 0.0 
7.27082 2.03327 0.0 
4.89223 2.24166 0.0 
4.37666 2.58028 0.0 
3.23123 2.02597 0.0 
1.98773 0.466467 0.0 
8.28155 1.27045 0.0 
3.21131 2.02765 0.0 
3.20135 2.02848 0.0 
3.18889 2.02951 0.0 
3.17635 2.03053 0.0 
0.759789 2.22952 0.0 
8.49329 0 0.0 
3.16034 2.03183 0.0 
3.15052 2.03262 0.0 
0.628639 2.20506 0.0 
9.32232 0.536703 0.0 
3.13957 2.03349 0.0 
2.48103 2.13794 0.0 
3.1296 2.03426 0.0 
6.48933 2.22857 0.0 
3.12171 2.03487 0.0 
9.69401 2.83547 0.0 
3.11166 2.03562 0.0 
2.5181 1.97605 0.0 
3.10169 2.03635 0.0 
3.10933 0.900826 0.0 
3.0922 2.03704 0.0 
9.87757 2.91797 0.0 
3.08224 2.03774 0.0 
1.926 1.35136 0.0 
3.07177 2.03847 0.0 
3.05986 2.03927 0.0 
3.04983 2.03993 0.0 
3.21057 1.74793 0.0 
3.03985 2.04058 0.0 
4.30691 0 0.0 
3.02987 2.04121 0.0 
8.66013 2.72876 0.0 
3.0199 2.04182 0.0 
3.00992 2.04242 0.0 
10.2808 2.0539 0.0 
3.00193 2.04289 0.0 
2.24493 1.09945 0.0 
6.92709 2.09023 0.0 
2.98711 2.04373 0.0 
4.64489 0.591053 0.0 
2.97747 2.04427 0.0 
8.24797 3.03812 0.0 
2.96958 2.04469 0.0 
3.47062 0 0.0 
2.96201 2.04509 0.0 
7.00159 2.02509 0.0 
2.95043 2.04569 0.0 
9.9963 2.9126 0.0 
2.94005 2.0462 0.0 
2.93089 2.04665 0.0 
6.05025 2.99685 0.0 
2.24791 2.55131 0.0 
2.92007 2.04715 0.0 
9.25464 2.64568 0.0 
2.91208 2.04752 0.0 
4.90901 0.0899404 0.0 
10.8572 2.96282 0.0 
2.8996 2.04807 0.0 
2.8946 2.04828 0.0 
8.13323 0.520161 0.0 
2.88961 2.04847 0.0 
1.98966 2.59934 0.0 
2.88461 2.04866 0.0 
2.88003 2.04882 0.0 
9.13967 0.213306 0.0 
5.54862 0.894725 0.0 
2.87462 2.04899 0.0 
9.78296 1.06358 0.0 
2.86962 2.04914 0.0 
5.10879 0.592945 0.0 
7.53674 2.98455 0.0 
2.85755 2.04945 0.0 
2.86213 2.04934 0.0 
6.25856 0 0.0 
11.0785 1.20913 0.0 
2.85213 2.04957 0.0 
6.52929 2.17886 0.0 
2.84714 2.04967 0.0 
4.80153 2.10668 0.0 
2.84214 2.04975 0.0 
2.83714 2.04983 0.0 
3.98751 2.29354 0.0 
2.7008 2.0473 0.0 
2.83214 2.04989 0.0 
2.82714 2.04994 0.0 
2.76836 2.05294 0.0 
2.81965 2.04999 0.0 
2.82215 2.04997 0.0 
8.88907 0.211314 0.0 
9.84311 3.20445 0.0 
2.81215 2.05001 0.0 
2.80472 2.05001 0.0 
2.79507 2.04997 0.0 
2.79965 2.05 0.0 
5.55584 1.18487 0.0 
7.3899 3.75796 0.0 
2.78966 2.04993 0.0 
3.26702 1.95332 0.0 
2.78466 2.04988 0.0 
9.45522 2.67434 0.0 
2.77966 2.04982 0.0 
7.88728 1.90278 0.0 
2.77466 2.04975 0.0 
3.24522 1.08197 0.0 
2.77216 2.04971 0.0 
2.76716 2.04961 0.0 
2.76467 2.04956 0.0 
7.46771 1.73254 0.0 
2.75967 2.04946 0.0 
2.75467 2.04934 0.0 
1.71757 3.07972 0.0 
2.74967 2.0492 0.0 
8.49499 2.49978 0.0 
2.74468 2.04906 0.0 
9.51856 2.75585 0.0 
2.73968 2.04891 0.0 
2.73469 2.04874 0.0 
9.41426 2.76593 0.0 
2.73219 2.04865 0.0 
2.72719 2.04847 0.0 
2.72261 2.04829 0.0 
3.25845 1.94126 0.0 
4.36168 2.87285 0.0 
2.7172 2.04806 0.0 
8.83747 2.67733 0.0 
3.66501 2.90506 0.0 
2.71221 2.04785 0.0 
11.7225 0.522212 0.0 
2.70472 2.0475 0.0 
2.67763 2.04605 0.0 
2.69045 2.04677 0.0 
2.69475 2.047 0.0 
8.13831 0.956352 0.0 
3.11927 1.89296 0.0 
2.68477 2.04646 0.0 
4.79305 1.92641 0.0 
8.08707 1.03905 0.0 
2.67479 2.04588 0.0 
9.04251 2.70224 0.0 
2.66978 2.04558 0.0 
2.6648 2.04526 0.0 
9.48102 3.02398 0.0 
2.65981 2.04494 0.0 
8.79605 3.01706 0.0 
2.65482 2.04461 0.0 
5.37792 1.70953 0.0 
2.64741 2.04409 0.0 
8.98557 2.77888 0.0 
7.99404 0.835602 0.0 
2.63986 2.04355 0.0 
8.34192 0.993745 0.0 
2.63239 2.04298 0.0 
8.27174 0.700244 0.0 
2.62498 2.0424 0.0 
8.23459 1.16471 0.0 
2.62242 2.0422 0.0 
8.44244 0.812526 0.0 
2.61495 2.04158 0.0 
9.08968 2.78231 0.0 
2.60755 2.04095 0.0 
9.42671 3.11439 0.0 
3.45371 2.94783 0.0 
2.60001 2.04028 0.0 
1.8212 1.15783 0.0 
2.58798 2.03916 0.0 
2.59254 2.03959 0.0 
7.51557 1.55761 0.0 
6.22163 2.37134 0.0 
8.97315 2.9414 0.0 
2.58259 2.03864 0.0 
9.42058 2.93769 0.0 
2.70797 2.05741 0.0 
2.57513 2.0379 0.0 
2.57264 2.03764 0.0 
2.57016 2.03735 0.0 
2.56768 2.03702 0.0 
2.56522 2.03662 0.0 
2.56276 2.03616 0.0 
2.56031 2.03565 0.0 
2.55788 2.03508 0.0 
2.55546 2.03446 0.0 
2.55305 2.03379 0.0 
2.55066 2.03307 0.0 
2.54828 2.0323 0.0 
2.54592 2.03148 0.0 
2.54357 2.03062 0.0 
2.54124 2.02971 0.0 
2.53893 2.02876 0.0 
2.53664 2.02777 0.0 
2.53436 2.02674 0.0 
2.5321 2.02567 0.0 
2.52986 2.02456 0.0 
2.52764 2.02342 0.0 
2.52544 2.02224 0.0 
2.52325 2.02103 0.0 
2.52108 2.01978 0.0 
2.51893 2.01851 0.0 
2.5168 2.0172 0.0 
2.51469 2.01587 0.0 
2.51259 2.01451 0.0 
2.51052 2.01312 0.0 
2.50845 2.0117 0.0 
2.50644 2.01022 0.0 
2.50456 2.00858 0.0 
2.50283 2.00678 0.0 
2.50139 2.00474 0.0 
2.50037 2.00246 0.0 
2.5 2 0.0 
2.50037 1.99754 0.0 
2.50139 1.99526 0.0 
2.50283 1.99322 0.0 
2.50456 1.99142 0.0 
2.50644 1.98978 0.0 
2.50845 1.9883 0.0 
2.51052 1.98688 0.0 
2.51259 1.98549 0.0 
2.51469 1.98413 0.0 
2.5168 1.9828 0.0 
2.51893 1.98149 0.0 
2.52108 1.98022 0.0 
2.52325 1.97897 0.0 
2.52544 1.97776 0.0 
2.52764 1.97658 0.0 
2.52986 1.97544 0.0 
2.5321 1.97433 0.0 
2.53436 1.97326 0.0 
2.53664 1.97223 0.0 
2.53893 1.97124 0.0 
2.54124 1.97029 0.0 
2.54357 1.96938 0.0 
2.54592 1.96852 0.0 
2.54828 1.9677 0.0 
2.55066 1.96693 0.0 
2.55305 1.96621 0.0 
2.55546 1.96554 0.0 
2.55788 1.96492 0.0 
2.56031 1.96435 0.0 
2.56276 1.96384 0.0 
2.56522 1.96338 0.0 
2.56768 1.96298 0.0 
2.57016 1.96265 0.0 
2.57264 1.96236 0.0 
2.57513 1.9621 0.0 
2.58259 1.96136 0.0 
7.21233 1.13745 0.0 
2.58998 1.96065 0.0 
2.90738 2.09971 0.0 
2.59503 1.96018 0.0 
2.60001 1.95972 0.0 
5.10591 2.07433 0.0 
2.60499 1.95928 0.0 
2.60997 1.95884 0.0 
7.9704 1.8341 0.0 
2.61495 1.95842 0.0 
2.61993 1.95801 0.0 
4.98986 2.23313 0.0 
2.62491 1.9576 0.0 
2.62989 1.95721 0.0 
1.65087 0.788604 0.0 
2.63488 1.95683 0.0 
2.63986 1.95645 0.0 
2.64485 1.95609 0.0 
4.49088 0.755642 0.0 
2.64983 1.95574 0.0 
2.6623 1.9549 0.0 
2.65482 1.95539 0.0 
2.65981 1.95506 0.0 
8.17613 1.24546 0.0 
3.9346 1.75841 0.0 
2.66729 1.95458 0.0 
11.2956 1.25205 0.0 
8.33045 1.37709 0.0 
2.67228 1.95427 0.0 
2.67727 1.95397 0.0 
6.22457 1.68412 0.0 
2.68475 1.95354 0.0 
5.0246 1.95782 0.0 
2.69217 1.95314 0.0 
11.1454 3.21 0.0 
2.69723 1.95288 0.0 
2.69973 1.95275 0.0 
6.57316 0.583584 0.0 
2.70715 1.95239 0.0 
6.67619 2.27471 0.0 
4.50325 2.71135 0.0 
2.71221 1.95215 0.0 
2.7172 1.95194 0.0 
7.07543 3.64664 0.0 
2.7222 1.95173 0.0 
7.62184 1.60154 0.0 
2.72719 1.95153 0.0 
4.31223 2.91904 0.0 
10.5184 4 0.0 
2.73219 1.95135 0.0 
2.73718 1.95118 0.0 
9.14003 0.860896 0.0 
6.34624 0.85774 0.0 
2.74218 1.95102 0.0 
7.07392 1.9582 0.0 
2.74967 1.9508 0.0 
2.76007 1.95054 0.0 
2.7571 1.9506 0.0 
5.0377 2.08673 0.0 
1.27321 0 0.0 
2.76467 1.95043 0.0 
2.76966 1.95034 0.0 
8.66452 1.25763 0.0 
2.77216 1.95029 0.0 
2.77716 1.95021 0.0 
2.77966 1.95018 0.0 
2.78466 1.95012 0.0 
2.79209 1.95005 0.0 
3.7605 1.3859 0.0 
2.79715 1.95001 0.0 
5.22417 1.82508 0.0 
12 0.990134 0.0 
2.80215 1.94999 0.0 
2.80715 1.94998 0.0 
5.45556 0.60544 0.0 
2.81215 1.94999 0.0 
2.81715 1.95 0.0 
5.10878 1.87355 0.0 
6.537 2.04355 0.0 
7.28937 1.75424 0.0 
2.82215 1.95003 0.0 
2.82714 1.95006 0.0 
2.82964 1.95009 0.0 
9.26431 0.861336 0.0 
2.83707 1.95017 0.0 
2.84464 1.95029 0.0 
2.84964 1.95038 0.0 
1.84114 2.41826 0.0 
2.85463 1.95048 0.0 
5.01917 1.52083 0.0 
5.4706 2.96205 0.0 
2.86213 1.95066 0.0 
2.86713 1.95079 0.0 
4.80076 2.96622 0.0 
2.87212 1.95093 0.0 
2.87712 1.95109 0.0 
7.57183 1.77636 0.0 
2.88211 1.95125 0.0 
5.17774 0.289194 0.0 
2.88711 1.95143 0.0 
6.7031 3.20393 0.0 
2.8921 1.95162 0.0 
9.20021 0.320663 0.0 
2.8971 1.95183 0.0 
5.32767 2.82292 0.0 
2.90417 1.95213 0.0 
2.91208 1.95248 0.0 
5.14871 1.60688 0.0 
2.92207 1.95294 0.0 
3.00746 0.89933 0.0 
2.93157 1.95339 0.0 
1.73985 0 0.0 
2.94154 1.95387 0.0 
2.95152 1.95437 0.0 
5.25734 2.73244 0.0 
2.96201 1.95491 0.0 
9.44351 0.322033 0.0 
2.9715 1.95541 0.0 
6.49297 3.12281 0.0 
2.98147 1.95595 0.0 
0.966707 1.21788 0.0 
2.99145 1.95651 0.0 
9.897 3.10861 0.0 
3.00193 1.95711 0.0 
7.52081 1.95258 0.0 
3.01143 1.95767 0.0 
1.92371 0.863914 0.0 
3.02139 1.95827 0.0 
6.57176 2.37503 0.0 
3.03137 1.95889 0.0 
12 1.23627 0.0 
3.04135 1.95952 0.0 
2.37133 1.3749 0.0 
3.05132 1.96016 0.0 
6.68848 2.38189 0.0 
3.0618 1.96086 0.0 
6.67764 1.24793 0.0 
3.07177 1.96153 0.0 
0.769062 1.4551 0.0 
3.08126 1.96219 0.0 
2.41677 2.51326 0.0 
3.09172 1.96293 0.0 
3.09837 1.96341 0.0 
3.68277 0 0.0 
3.23374 2.71087 0.0 
3.11166 1.96438 0.0 
10.1108 4 0.0 
3.12114 1.96509 0.0 
3.1311 1.96585 0.0 
6.86748 2.2434 0.0 
3.14156 1.96667 0.0 
12 0.743391 0.0 
3.15104 1.96742 0.0 
4.81197 3.69868 0.0 
6.43196 2.27175 0.0 
3.17146 1.96907 0.0 
6.59107 2.00719 0.0 
3.18336 1.97004 0.0 
6.42434 2.17873 0.0 
3.20135 1.97152 0.0 
3.22072 1.97314 0.0 
12 0.24817 0.0 
8.82262 0.105835 0.0 
3.23123 1.97403 0.0 
11.6153 4 0.0 
3.24555 1.97525 0.0 
8.58402 0.30847 0.0 
3.26112 1.97659 0.0 
6.05132 2.47649 0.0 
4.49694 2.34339 0.0 
3.28104 1.97833 0.0 
2.95189 3.12198 0.0 
12 2.76478 0.0 
3.30038 1.98003 0.0 
8.26583 1.45566 0.0 
4.08578 1.96014 0.0 
3.31787 1.9816 0.0 
1.79458 1.08924 0.0 
3.33233 1.9829 0.0 
8.37767 1.48423 0.0 
8.68938 1.7583 0.0 
3.35073 1.98458 0.0 
1.50522 0 0.0 
3.37064 1.98642 0.0 
1.04781 0 0.0 
12 0.496086 0.0 
3.39055 1.98829 0.0 
8.22608 1.63221 0.0 
9.20133 0.752095 0.0 
3.41483 1.99059 0.0 
[...]
<PointData>
  <DataArray type = "Float64" Name="BLMLevelSetLayer1" format="ascii">
0.243028
0.243028
-2.95666
-8.48886
-2.95666
-8.48886
-0.893241
-3.28055
0.226829
-0.470947
0.243027
0.243029
-6.2012
-0.317333
0.243027
0.230942
0.243028
-2.76763
0.243028
-6.92506
0.243028
0.230223
0.208845
-0.873504
0.243027
0.227747
0.243028
0.243028
-0.00978493
0.243029
-0.898268
-0.920025
0.243028
-7.74843
0.243028
-3.52793
-1.16984
-0.807706
0.243028
-1.35938
-4.5937
0.243028
0.243028
0.243027
0.243028
-1.51302
-5.13552
0.243028
0.243028
-1.6404
-5.76011
0.243027
0.119696
0.243027
-2.75495
0.243028
-6.00694
0.243028
0.237854
0.243028
-0.817845
0.243028
-6.20012
0.243028
-0.62007
0.243028
0.243027
0.243027
0.0194318
0.243027
-1.91264
0.243027
-4.96816
0.243027
0.243027
-6.53796
0.243028
-0.676737
-3.18522
0.243026
-1.57162
0.243026
-4.61688
0.243027
-1.7443
0.243028
-3.25864
0.243027
-6.31691
0.243027
0.243029
-2.49474
-0.354414
0.243027
-5.5476
0.243028
-2.12966
-7.17677
0.243024
0.243024
-4.62047
0.243024
-0.540854
0.243024
0.243026
-5.67258
-2.08424
0.243024
-6.10918
0.243024
-1.89357
-3.91179
0.243023
0.243028
-3.16365
-7.37651
0.243028
-2.79147
0.243022
-1.06278
0.243028
0.243022
-0.325496
0.243028
0.243028
0.243022
0.239719
0.243024
0.243028
-5.4348
-6.21323
0.243028
0.243024
0.243024
0.243023
-1.96813
-4.02523
0.243024
0.21933
0.243024
-5.75014
0.243024
-4.14531
0.243024
-0.647129
0.243028
0.243022
0.243024
-3.73362
0.243023
0.243024
-1.08594
0.243024
-4.7768
0.243024
-5.82268
0.243023
0.243024
-5.72049
0.243028
0.243022
0.243028
0.208057
-0.982751
0.243022
-5.13712
-0.675922
0.243028
-8.11107
0.243024
0.243025
0.243027
0.243025
-4.51101
0.171239
0.243025
-1.05206
-4.4434
0.243025
-5.34366
0.243024
0.243024
-5.82484
0.243024
-5.1496
0.243024
-1.65706
0.243023
-5.29742
-4.39914
0.243024
-4.70214
0.243028
-4.70228
0.243024
-4.5645
0.243028
-4.83982
0.243024
-5.40098
0.243023
-5.78734
-0.694904
0.243024
-0.834925
0.243024
0.243028
-3.79673
-2.50368
-5.31031
0.243028
-5.75118
0.233275
0.243017
0.243028
0.242945
0.242911
0.24294
0.243028
0.242945
0.242919
0.242947
0.243028
0.242952
0.242928
0.242954
0.243028
0.24296
0.242938
0.242961
0.243028
0.242967
0.242947
0.242968
0.243028
0.242973
0.242956
0.242974
0.243028
0.242978
0.242958
0.242982
0.243028
0.242673
0.242516
0.242593
0.243028
0.242015
0.241641
0.242015
0.243028
0.242593
0.242516
0.242673
0.243028
0.242982
0.242958
0.242978
0.243028
0.242974
0.242956
0.242973
0.243028
0.242968
0.242947
0.242967
0.243028
0.242961
0.242938
0.24296
0.243028
0.242954
0.242928
0.242952
0.243028
0.242947
0.242919
0.242945
0.243028
0.24294
0.242911
0.242945
0.243028
0.243017
0.243028
-3.56795
0.243024
0.191094
0.243024
0.243024
-1.36456
0.243024
0.243024
-4.23041
0.243024
0.243024
-1.2648
0.243024
0.243024
-1.23166
0.243024
0.243024
0.243024
-1.34683
0.243024
0.243029
0.243024
0.243024
-4.49342
-0.253694
0.243023
-7.58827
-4.62728
0.243028
0.243023
-2.49967
0.243024
-1.28212
0.243028
-7.49735
0.243023
0.243025
-3.1404
0.243023
-2.94493
-0.986216
0.243028
0.243022
-3.69292
0.243028
-3.89793
0.243022
-0.982708
-7.05451
0.243028
0.243022
-5.51067
-2.82347
0.243028
-3.33112
0.243024
0.243025
0.243023
-1.29706
-2.09748
0.243023
0.243024
-4.97442
0.243028
0.243022
0.243024
0.243023
0.243028
-0.423072
0.243022
-1.48988
-8.31663
0.243028
0.243022
-2.15824
0.243028
0.243023
-1.37063
-2.79427
-3.55423
0.243028
0.243022
0.243024
-5.63247
0.243023
0.243023
0.243024
-0.536021
0.243024
-1.3496
-1.94941
0.243028
0.243022
-1.3767
0.243028
0.243022
-3.83488
0.243028
-2.1524
0.243022
-3.17849
0.243028
-5.69911
0.243023
-1.76093
0.243027
0.243028
-1.45166
0.243028
-0.813491
0.243028
-1.88404
0.243028
0.243028
-1.66044
0.243028
-5.93252
0.243028
-2.95325
0.243028
-1.47731
0.243028
-6.24915
0.243028
-3.77805
0.243028
-1.02296
0.243028
-2.85142
0.243028
-8.29112
0.243028
-0.375579
0.243028
-2.96812
0.243028
-3.02216
0.243028
-1.57156
0.243028
-0.255439
0.243028
0.243027
-1.76419
-0.439727
0.243028
-6.66336
0.243028
0.243028
-3.13317
0.243028
-8.3492
0.243028
-1.90248
-2.70141
0.243028
-2.84804
0.243027
-2.68671
0.243028
0.243028
-8.43541
-5.40624
0.243028
-8.11486
0.243027
-5.11467
0.243028
-2.35221
-0.811054
0.243028
-0.832147
-8.29121
0.243028
-4.55367
-0.344038
0.243027
-0.904974
0.243028
-4.66173
-4.95193
0.243028
-1.98237
0.243028
-2.22412
-8.38881
0.243028
-4.49726
-5.59305
0.243027
-6.8534
0.243028
-2.07636
0.243027
-0.815414
-0.808518
0.243028
-1.77149
-0.395917
-1.79165
-2.76526
-2.58303
-0.786748
-0.333921
-1.9921
-1.60873
-1.80522
-0.789827
0.221102
-0.394705
-3.68158
-0.726373
-2.21883
-1.99766
-2.10567
-5.0573
-4.63084
-0.790337
-4.3874
-1.89199
-0.341569
-0.162148
-7.2562
-7.66632
-3.82822
-3.75501
-2.06888
-1.81751
-2.58479
-6.86249
-0.757744
-0.453932
-0.364405
-2.94818
-6.61978
-0.81304
-7.97756
-1.03257
-8.29246
-2.58419
-3.17899
-0.466292
-1.70811
-5.85638
-8.25702
-8.25898
-8.24569
-1.82474
-4.82036
-2.87098
-1.71691
-0.919652
-8.32195
-0.877936
0.0575633
-7.45957
0.0325388
-0.382698
0.112695
-8.34824
-8.38813
-8.43504
-7.76062
-0.193688
-3.19717
-0.818328
-3.07403
-2.35476
-6.36617
-1.03353
-0.182542
-0.772776
-2.41782
-1.68002
-0.86616
-2.30692
-0.992284
-0.720045
0.231239
-1.89679
0.22117
-5.67528
0.152581
-1.99333
-1.70915
0.224247
-1.73659
-2.09191
-2.687
-2.43623
-4.53543
-0.211474
-0.234931
-2.11306
-1.70768
-1.35255
-1.72621
-0.176468
-0.441759
-2.80703
-2.30584
-2.58303
-1.12235
-0.803319
-2.25273
-2.41131
-0.324874
-0.827358
-2.76526
-2.7396
-0.476435
-0.992201
-2.15876
-5.29432
-2.80703
-2.27035
-2.25836
-2.27035
-6.25644
-2.36702
-2.44909
-2.55118
-2.6712
-0.902444
-5.44385
-2.21765
-4.85632
-0.123816
-0.0217819
-7.29245
-0.816987
-2.67477
-0.917416
0.198586
0.220505
-0.820152
-0.377643
-1.77593
-5.01705
-0.700685
-2.57083
-5.29543
-1.7722
-2.96761
0.236698
-0.775735
-7.43434
0.171263
-1.65262
-0.648807
-0.573274
0.157618
-6.83313
-5.09793
-4.72684
-4.61074
-0.237511
-2.1916
-4.56352
-0.370018
0.207129
-5.49336
-1.67262
-3.80734
-7.66157
-5.99687
-0.95132
-0.339815
-1.06347
-1.5072
-1.0261
-1.66686
-0.227799
-2.54514
-4.96918
-3.13615
-2.52665
-2.98004
-5.31625
-0.538834
-0.550153
-1.69152
-0.796538
-5.02222
-1.55063
-5.91728
-0.584981
-2.73511
-0.701585
-5.06724
-5.19385
-0.276363
-5.08962
-0.899146
-4.08455
-1.56136
-5.03645
-6.4139
-2.90515
-0.53116
-3.11173
-1.56635
-1.31975
-1.84424
-4.45255
-2.9049
-0.621159
-1.6948
-4.72478
-0.555861
-2.8757
-0.302221
-2.81511
-0.254478
-2.90567
-5.02999
-4.81246
-2.44369
-0.204706
-2.99458
-4.52342
-4.82884
-3.91259
-0.52957
-0.402416
-1.09844
-3.42794
-2.02073
0.18973
-0.880832
0.116962
-2.75018
-1.75062
-0.450063
0.0255529
-1.1736
-3.09227
-2.76546
-0.966142
-2.30562
-3.13219
0.174214
-2.73528
-4.36375
-2.61981
0.217176
-0.638989
-3.31513
-4.8378
-0.212672
-0.663292
-1.40489
0.1819
-1.41435
-3.11644
-4.87722
-6.65205
-0.931921
-8.28057
-7.65787
-0.0615743
-1.61039
-2.34792
-4.72355
-2.57546
-4.37574
-2.30784
-0.980167
-1.03877
-4.4962
-4.42756
0.175242
-0.943729
-4.69558
0.202567
-2.21059
-4.77145
-4.91648
-7.12072
-1.34782
0.146419
-5.87266
0.224084
-2.52832
-2.69666
0.159125
-2.70401
-0.5524
-0.749257
-0.530759
0.225328
-0.160325
0.192729
-0.520324
-8.2258
-0.957782
-0.558292
-2.66766
-3.63412
-3.17462
-2.03406
-2.57253
-2.74242
-2.65071
-1.24678
-2.60238
-1.83741
-1.66289
-0.145506
0.106216
-2.46551
-1.48723
-0.280243
0.111423
-3.09569
-0.0848555
-2.92796
-0.968539
-1.66064
-0.4213
-2.22173
-1.11501
-2.70966
-0.458986
-5.90398
-3.57617
-5.87847
-0.886406
-1.03959
0.129388
0.230423
0.204579
-2.79219
-0.253978
-0.853292
-1.25528
-0.80363
-8.02435
-0.923396
-0.532153
-7.51343
-0.20403
-1.44821
-2.00551
-1.25504
-0.989439
-0.891997
0.168725
-0.891825
-7.44517
-5.34596
-7.9007
-1.88092
-7.72977
-0.661416
-1.96918
-0.0473566
-7.93589
-1.44274
-0.556985
-7.68411
-4.23179
-8.01429
-2.93095
-1.15935
-1.30172
-3.06642
-1.13598
-7.89924
-3.27536
0.175429
-0.969757
0.215231
-6.25601
-0.0866315
-1.06079
-0.230171
-1.33608
0.169622
-4.90707
-1.42847
-0.656641
-6.82733
-3.33611
-8.16602
-4.9336
-8.18272
-1.00363
-0.371377
-0.586623
-0.748412
-0.071133
-4.22866
-2.40212
-2.93922
-3.1446
-1.18712
-2.29675
-2.12393
-3.64443
-4.34971
0.167386
-3.57963
0.216908
-0.431276
-3.8809
-1.14921
-1.51169
-3.01735
0.202897
-3.40128
-1.36499
-1.4904
-2.99274
-3.43433
-2.11102
-1.23066
-1.56905
-0.968123
-1.07989
-0.587688
-4.87722
-5.37883
-0.959743
-3.76662
-1.28058
-0.427429
-4.98811
-1.04408
-1.07171
-2.31734
0.0954583
-0.189676
-1.63505
0.115606
-6.49935
-5.98006
-2.78732
-0.58958
0.21188
-0.118655
-0.148305
-2.11086
-0.156624
0.0140629
-2.39264
-5.14612
-0.434136
-1.51866
-5.99369
-4.84424
-1.13841
-5.00253
-0.882645
0.228175
-1.31092
-5.11522
-0.285312
-1.45158
-0.00249897
-2.29076
-1.8873
-5.78512
-4.88109
0.156932
-4.98617
-3.74204
0.18592
0.17022
-6.15375
-6.17822
-3.05815
-1.33521
-3.09696
-4.79707
-0.697857
-6.44604
-1.93175
-2.88852
-0.169001
-0.62165
-2.31649
-0.129774
-1.26658
-2.61293
-2.216
-1.92548
-5.35273
-2.8303
-2.51968
-3.03657
0.182153
-1.77315
-1.57786
-0.295189
-1.38462
-0.0728367
-0.385215
-2.38848
-0.274712
-0.274916
0.182192
-0.914492
-1.19184
-1.72898
0.21423
-0.841325
-1.75077
-0.189196
-0.924447
-0.477824
-0.798961
-1.23729
-0.10505
-4.51717
-4.29705
-5.28753
-3.16352
0.121876
0.207011
-0.39293
-2.17924
-1.79555
-1.88837
-5.68396
-2.74946
-1.05471
-0.374478
-0.936917
-2.0118
-0.659412
-0.789989
-6.738
-3.03763
-0.918402
-2.72438
-3.17546
0.120865
-2.12259
0.0395621
-0.464483
-0.0979009
-1.93883
-2.84316
-0.589407
-2.49108
-0.584047
-6.39591
-3.51152
-0.0602075
-0.128228
-2.67684
-2.31962
-0.806422
-2.80794
-0.075677
-0.221372
-3.03874
-2.00763
-0.136203
-0.780194
-2.27235
-0.339659
-3.06081
-2.58984
-0.556126
-1.22754
-1.37493
-1.3595
-2.34742
-2.80948
-0.488805
-0.678487
-0.899067
-2.07824
-1.40434
-2.56717
-6.13759
-2.23598
-3.13298
-5.57414
-1.98143
-0.256372
-1.92203
-3.03784
-5.17711
-0.320602
-5.73457
-2.27534
-0.771429
-4.16704
-0.908315
-3.31733
-0.906046
-0.430163
-0.0385027
-1.11163
-6.19325
-1.71669
-0.216578
-6.08186
-1.24507
-0.821002
-0.719005
-6.55544
-1.54695
-0.25639
-0.484174
-0.248792
-2.05311
0.152923
-2.23339
0.10692
-0.6291
-1.08125
-0.443298
-5.2364
-6.94909
-1.6202
-0.94263
-1.24879
-1.82911
-1.99564
-3.7806
-3.40392
-0.130712
-1.11183
-0.641817
-2.64179
-2.1216
-0.446379
0.156697
-2.94431
-1.62654
-0.451231
-1.89018
-0.70498
-0.216264
-1.12215
0.13923
-1.43318
-2.18196
0.224085
-1.99369
-0.00292626
0.0950798
-1.96226
-3.01041
-6.35947
0.205588
-0.25473
-1.07749
-2.0123
-1.30441
-0.361848
-3.0924
-6.71323
-0.294734
-0.623125
-4.75365
-0.637648
-7.09753
-0.646781
-3.41293
-5.1399
-4.80256
-5.18262
-0.660899
-0.867518
-0.609033
-6.58758
-3.04021
-0.191191
-0.232487
0.212553
-5.14562
0.233633
-2.54229
-0.506812
-4.86161
-0.483353
-0.878648
-3.65391
-0.619005
-0.70405
0.0930908
-0.269804
-0.657983
-1.47763
-0.284595
-1.94955
-0.171228
-1.92382
-1.87327
-0.162252
-2.94319
-1.72097
-0.332829
0.194056
-3.85211
-2.76136
-3.95368
-1.14092
-3.30962
-2.82573
-7.60599
-0.375127
-0.289122
-6.82099
-3.40885
-4.8511
0.212795
-0.689147
-3.81637
-0.314164
-0.354764
-1.03839
-1.939
-0.747909
-1.64043
-7.46172
0.208355
0.168963
0.204629
-0.520661
0.00151103
-4.20644
-2.01924
-0.706995
-3.53556
-0.00880441
-0.469202
-1.45834
0.193767
-0.651192
-0.849198
-3.00038
-3.85075
-6.49239
-0.752669
-0.513801
-1.04235
-0.567718
-1.02033
-2.01312
0.228094
-0.465633
-6.46398
-0.861859
-0.723935
-0.382295
-4.28556
-1.7643
-0.917882
-6.47291
-5.29183
-1.80545
-7.46092
-0.853205
-3.73492
-1.04271
-3.5838
-0.601291
-7.25279
-0.337275
-4.55655
-0.745264
-2.72187
-0.31297
0.23413
-0.812224
-7.71311
-7.33123
-0.701579
-7.33179
0.126762
-0.466303
-4.2538
-0.561162
-0.416393
-1.33066
-0.796948
-7.55264
-7.94582
-0.494335
-0.571252
-0.547408
-0.495414
-4.27436
0.198607
-8.16127
-7.65583
-2.16508
-5.09544
-0.244665
-2.03667
-5.75464
-0.640661
0.224425
-7.85336
-7.48276
-1.84227
-0.686634
-0.65619
-1.48993
-0.657879
-0.0477197
0.156324
-2.50177
-7.76618
0.231953
-6.19518
-0.787096
-3.01645
-1.70651
-0.853715
-7.17801
-4.00505
-5.22929
-0.759815
-0.383815
-2.92454
-4.57678
-8.03781
-5.1384
-0.401392
-7.79491
-0.387138
-7.84849
0.211394
-3.8149
-0.587381
-0.16321
-0.477251
-0.761554
-0.765115
-0.626393
0.238695
-4.81481
-5.57337
-4.43248
-2.44302
-2.02727
-3.92598
-5.07695
-3.81297
-0.875976
-0.259578
-7.12108
-5.72084
-6.35454
-2.83455
-3.02018
-1.95537
-7.06983
-2.15317
0.157549
-0.617695
-2.25605
-0.150173
-0.660526
-2.83298
-8.06742
-2.32151
-4.08527
-0.332661
-8.00248
-1.77509
-2.11693
-3.1046
-1.43474
-0.320585
-6.97221
0.21339
-1.82591
0.212109
-7.87471
-0.263182
-0.623959
-0.148496
0.23048
-0.942773
0.152067
-0.683771
-0.218276
-5.61083
-0.802636
-6.52675
-1.87986
-0.198624
-4.53673
-0.458536
-2.61176
-0.460309
-0.863073
-2.10807
-4.66361
-0.628586
-8.27189
-1.93278
-4.86975
-3.94808
-0.212891
-2.94898
-2.80747
-1.94329
-2.19731
-3.83048
-2.62074
-2.65745
-6.04576
-0.679612
-2.38523
-5.01401
-3.21449
-3.32314
-0.293142
-0.767773
0.199263
-3.94136
-2.53064
-0.512871
-6.33112
-3.73107
-2.16661
-1.83983
0.0365552
-1.8968
-2.5729
-0.668518
-1.75436
0.218919
-2.93137
-0.272127
-4.61803
-1.82069
-4.80026
-1.82845
-0.384681
-2.92827
0.0986408
-4.56727
-2.14801
-5.79981
-6.51116
-0.161451
0.157822
-4.37097
-5.04231
-3.99437
-2.02001
-5.17193
-1.8998
-7.89988
-2.73133
-4.39812
0.159771
-0.520428
-2.02844
-2.41216
-4.10261
-6.7873
-0.680483
-2.51266
-2.89131
-4.24649
-0.234314
-0.720369
-6.19301
-2.77396
-2.9526
-0.579577
-1.58206
-4.25149
-6.67646
0.145494
-2.77383
-6.34654
-1.02106
0.194868
0.103375
-0.759842
-0.303
-1.42443
-1.76669
-4.27673
-8.04545
-7.98383
-8.06945
-7.58024
-6.22735
-3.96882
-2.83695
-6.01605
-6.77277
-0.600895
-0.934628
-2.40277
-3.28957
0.231298
0.19001
-1.60976
-3.85639
-6.40047
0.217298
-3.66937
0.214212
-2.42629
-0.85547
-3.70825
-2.67439
-4.05919
-1.96717
-0.901913
-2.89991
-2.31257
-0.143182
0.224509
-4.639
-2.20539
-2.49671
-1.58407
-2.50279
-4.2514
-0.863942
-3.29889
-2.32887
-0.211104
-1.4428
-0.469469
-0.581491
-5.91277
0.234304
-4.89082
-4.1896
-6.78623
-0.230045
-4.94524
-4.12474
-0.329527
-4.80731
-3.0628
-1.4998
-4.21759
-0.0432557
-0.625164
-3.03394
-1.11702
-0.299113
-1.56646
-2.93111
-5.98942
-2.05278
-2.2295
-5.93196
-0.513257
-4.36936
-1.25448
-1.38044
-3.41798
-4.38279
-1.45731
-3.08829
-1.24797
-3.51562
-4.35636
-2.63597
-2.793
-4.41512
0.236234
-0.52876
0.166832
-0.3097
-4.66717
-6.10831
-6.69652
-0.990346
-6.59753
-5.24781
-2.38217
-1.38547
-0.397917
-0.934983
-0.254485
-3.5558
-2.40073
-4.51027
-6.89004
0.238025
-0.550923
-1.68689
-5.57344
-0.339485
-0.46127
-0.649715
-4.44916
-4.0523
-0.463906
-2.57167
0.240012
-1.15419
-2.0787
-3.43898
-0.40576
-0.345353
-2.1481
0.236995
-0.445496
-8.26137
0.235945
-0.416922
0.240949
-4.803
-6.19458
-5.56025
-2.58552
0.0687667
-2.83005
-0.57308
0.207048
-4.64611
-7.26107
-5.66757
-1.13563
-5.74949
-1.31517
-5.67371
-1.15551
0.24303
-1.04635
-5.596
-1.06727
-4.29605
-0.467008
-4.7682
-5.44423
-1.12544
-7.52098
-2.4384
-0.544333
-2.7221
-0.434427
-4.55113
-2.36212
-4.75744
-7.26806
-0.994992
-3.38151
-4.34593
-5.24103
-5.71325
-2.59117
-2.37613
-2.83757
-0.439767
0.24003
-5.42445
0.238179
-6.87789
-1.43258
-0.434936
-0.758262
-2.66561
-7.46873
-0.120133
-2.24248
-6.93941
-0.390366
-0.55985
-5.77965
0.225556
-0.299483
-0.378336
-5.71182
-0.997351
-5.19785
-0.737161
-4.06771
-5.96234
-1.02388
-1.06378
-5.27058
-3.95868
-0.777362
-0.472475
-0.266413
-0.572068
-5.67443
-3.65435
-2.61617
-2.25332
-5.82765
-0.337571
-1.10769
-6.55673
-2.67571
-6.69311
-5.55906
-5.8737
-5.92639
-6.06206
-6.07406
-1.1783
0.236237
-2.28769
-0.433157
-4.40012
-5.88079
-0.42705
-6.15326
-6.15119
-5.94408
-5.90858
-4.79926
-2.47562
0.193142
-2.49358
-5.3677
0.231438
-6.40821
-6.35988
-6.48868
-5.99134
-6.20289
-6.49605
-3.21935
-6.3836
-2.4219
-6.52812
-1.0867
-6.25554
-2.45742
-5.59697
-5.09528
-2.48862
-1.24809
-5.2975
-0.656072
-3.87918
-5.24403
-0.853341
-2.57023
-3.58144
0.227532
-4.73314
0.241717
-3.84801
-3.77227
-6.42943
-1.24815
-0.539566
-1.18994
-5.39304
-8.01956
-6.05032
-2.22054
-5.34772
-1.60231
-2.45401
-8.07789
-3.48679
-6.3612
-8.11167
-7.62227
-3.31657
-7.90455
-2.64153
-4.64796
-2.89981
0.23169
-4.40344
-0.63653
-2.93313
-1.19085
-0.465845
-2.57091
-1.51821
0.187555
-1.6694
-2.49409
-5.12753
0.163595
-1.04132
-1.16781
0.0475101
-5.91369
-2.38306
-2.83372
-3.30181
-2.70905
-3.24324
-1.56046
-2.43654
-0.671225
-2.7998
-3.11054
0.240226
-0.660045
-2.96059
-3.87161
-0.0577276
0.22752
-3.49785
-0.621136
-1.14454
-2.71641
-0.522555
-2.6927
-4.03754
0.238874
0.0980755
-6.46495
0.238304
-0.902049
-3.4703
0.239367
-3.46226
-2.89932
-2.09136
-5.847
-3.11758
-1.63537
-1.00225
0.134688
-5.19579
-2.02475
-1.12242
-2.26518
-0.939657
-5.55824
-0.805987
-0.923548
-0.800324
-0.384778
-3.20787
0.240242
-0.454177
-3.82521
-3.27086
0.0786594
-1.42185
-1.14773
-1.11994
-6.41561
-0.809641
-4.22346
-0.674185
-7.14372
-1.17677
-0.582125
-1.94053
-0.716282
-1.21193
-1.52117
-1.19336
-0.450153
-0.756337
-1.2812
-0.959893
-2.88079
-1.26924
-0.79999
-3.23714
-3.98237
-0.949507
-0.335775
-2.402
-6.29563
-6.37109
-0.332579
-1.74925
-0.932724
-5.82744
-0.718928
0.237073
-5.39909
0.230568
-1.18927
-1.2598
-0.32578
-1.85351
-3.57735
0.0832837
-5.39729
-2.07442
-1.2205
-2.0536
-3.92866
-0.784691
-0.818687
-0.578263
-0.571231
-0.801359
-5.30848
-0.918424
0.224409
-5.28381
-1.23522
-0.564197
-0.991848
-1.03774
-0.856838
-0.899299
-1.8392
-0.518504
-0.856487
-3.38823
-0.233313
-2.1318
-0.576008
-0.611003
-2.19322
0.0791241
-1.24979
0.194061
-5.28716
-0.407897
-0.478603
-0.723216
-1.97746
0.224547
0.219984
-1.30848
-0.521529
-4.32016
-3.66045
-0.196461
0.22093
-0.778039
-5.50109
-0.574088
-0.900366
-4.12538
-1.09868
-1.7024
0.23256
-0.883796
-2.21377
-5.76142
-1.78813
-4.49
-5.40848
-0.34151
0.236321
-0.105309
-0.818672
-0.818573
-0.789878
-1.68009
-1.76926
-4.24553
-0.479494
-5.16912
-2.94734
-0.246728
-6.91902
-0.631378
0.221238
-0.359678
-3.09737
-1.16796
0.217779
0.157328
-0.70875
-1.34803
-6.23541
-2.49678
-0.54792
0.228601
-0.911364
-0.745862
-0.966229
-0.79683
-0.570927
-0.375722
-0.729841
-0.753008
-0.56038
-0.410696
0.241207
-0.499764
-2.66976
-6.45812
-0.901742
-0.587152
-0.659213
0.233404
-0.53178
-2.82316
-5.26375
-1.66501
-0.984212
-2.26814
-4.50476
-0.610826
-1.11274
-0.545358
-3.36863
-1.308
-1.46998
-2.58071
-3.47836
-1.39374
-0.528378
-3.18808
-2.61055
-0.676229
-4.70418
0.14567
-7.09333
0.229442
0.191798
-6.71813
-0.95547
-7.25673
-5.63349
-0.974296
-0.565935
-3.22065
-1.06975
-0.931108
-0.927941
0.00679555
-6.61652
-1.01465
-6.09639
-7.02246
-0.966313
-1.2002
-2.71289
-0.51645
-2.10581
-5.05999
-0.659755
-0.0500722
-4.83533
-2.13003
-7.41401
0.241413
-2.02711
-5.71503
0.0559724
-3.71431
-0.79522
-2.06316
-2.34768
0.164217
-0.914228
-4.01729
-2.17583
-2.44208
-0.762254
-0.497128
-1.54391
-0.952866
-7.26963
-0.794935
-2.75402
-2.51627
-2.42055
-1.06791
-0.668377
-1.00242
0.226004
-1.90891
-3.24254
-2.98889
0.236076
-0.613674
-3.72225
-0.123948
-0.902885
-7.02802
-1.04342
-1.376
-7.88642
-2.54886
-1.33759
-1.63342
-7.69172
-6.96399
-2.36659
-1.05903
-0.876456
-0.995001
-5.81915
-1.27921
-1.43533
-0.830114
-3.90275
-1.23638
-0.0998003
-0.414621
-1.44991
-7.81185
-0.0205637
-1.85871
-3.6553
0.0895961
0.0986106
0.178691
-1.1623
0.196644
-0.779786
-2.34004
-0.16548
-6.38199
0.241559
-0.860302
-1.18924
-1.66125
-1.1763
0.241314
-7.99024
0.22336
0.0875608
-4.17092
0.0357988
0.0227206
-1.14357
-1.00968
-4.69199
0.0595676
-1.7004
-0.594164
-0.375885
-1.8102
0.232208
0.0415125
-4.31869
-1.42445
-4.34023
-1.57501
-1.56137
0.103261
-1.79445
-1.4891
-0.815668
-1.17512
-0.00770097
-1.19674
-1.23671
-0.704897
-7.77163
-0.438033
-0.905327
-1.14632
0.124056
-7.88413
-0.941234
-0.279594
-2.30897
-0.934368
0.0217527
-4.83873
-1.85887
-2.49719
-0.335996
-0.612387
0.114333
0.11356
-1.92088
-0.642397
-2.38214
-4.41932
-4.42747
-4.39393
-2.76012
-0.615008
0.160068
-6.89456
0.177082
-3.98115
-1.15479
0.114682
-1.33973
0.19341
-2.17903
-0.36068
-1.35544
0.125475
-0.276828
-4.90673
0.178427
0.0251155
0.0602496
-0.610776
-0.930267