<VTKFile type="UnstructuredGrid" version="0.1" byte_order="LittleEndian">
  <UnstructuredGrid>
    <Piece NumberOfPoints="6341" NumberOfCells="12205">
      <Points>
        <DataArray type = "Float64" NumberOfComponents="3" format="ascii">
3.5 2.00105 0.0 
3.5 1.99895 0.0 
0 0 0.0 
12 0 0.0 
0 4 0.0 
12 4 0.0 
6.29197 2.31448 0.0 
3.26624 0 0.0 
7.81957 0 0.0 
3.45961 2.00757 0.0 
3.46822 2.00422 0.0 
3.4492 2.00609 0.0 
9.75011 0.429191 0.0 
5.00555 1.68684 0.0 
3.4284 2.00811 0.0 
3.08807 1.95055 0.0 
3.40943 2.00992 0.0 
4.75094 2.06044 0.0 
3.39055 2.01171 0.0 
2.97188 1.95156 0.0 
3.37064 2.01358 0.0 
4.2045 1.61889 0.0 
4.04851 2.15296 0.0 
9.94803 3.01074 0.0 
3.3441 2.01602 0.0 
8.44566 1.21164 0.0 
3.32932 2.01737 0.0 
3.31416 2.01873 0.0 
3.25318 2.34864 0.0 
3.30101 2.01991 0.0 
8.39215 0.904636 0.0 
2.27564 0.935326 0.0 
3.28104 2.02167 0.0 
11.443 2.87979 0.0 
3.26112 2.02341 0.0 
5.491 0 0.0 
8.62845 2.63017 0.0 
2.34772 1.28578 0.0 
3.23123 2.02597 0.0 
2.39117 0.665013 0.0 
8.28155 1.27045 0.0 
3.21131 2.02765 0.0 
3.20135 2.02848 0.0 
3.18889 2.02951 0.0 
3.17635 2.03053 0.0 
3.58471 1.9715 0.0 
0.759643 2.22961 0.0 
3.16034 2.03183 0.0 
3.15052 2.03262 0.0 
0.628639 2.20506 0.0 
2.1048 0.766887 0.0 
3.13957 2.03349 0.0 
10.5585 0.816623 0.0 
3.1296 2.03426 0.0 
3.23484 2.22859 0.0 
3.12171 2.03487 0.0 
3.26192 2.0353 0.0 
3.11166 2.03562 0.0 
8.76778 3.38605 0.0 
3.10169 2.03635 0.0 
2.97444 1.93964 0.0 
3.0922 2.03704 0.0 
2.79173 0.920248 0.0 
3.08224 2.03774 0.0 
2.29734 3.23084 0.0 
3.07177 2.03847 0.0 
3.05986 2.03927 0.0 
3.04983 2.03993 0.0 
2.93512 1.93416 0.0 
3.03985 2.04058 0.0 
4.30691 0 0.0 
3.02987 2.04121 0.0 
8.66013 2.72876 0.0 
3.0199 2.04182 0.0 
3.00992 2.04242 0.0 
2.14335 1.23992 0.0 
3.00193 2.04289 0.0 
2.4857 2.14224 0.0 
9.8775 2.91781 0.0 
2.98711 2.04373 0.0 
2.25183 1.10577 0.0 
2.97747 2.04427 0.0 
3.09459 1.95939 0.0 
2.96958 2.04469 0.0 
3.47062 0 0.0 
2.96201 2.04509 0.0 
3.41775 1.98729 0.0 
2.95043 2.04569 0.0 
9.9963 2.9126 0.0 
2.94005 2.0462 0.0 
2.93089 2.04665 0.0 
2.5158 1.97998 0.0 
2.92118 1.94671 0.0 
2.92007 2.04715 0.0 
4.10232 0 0.0 
2.91208 2.04752 0.0 
4.90901 0.0899404 0.0 
10.8572 2.96282 0.0 
2.8996 2.04807 0.0 
2.8946 2.04828 0.0 
8.13323 0.520161 0.0 
2.88961 2.04847 0.0 
9.25412 2.64734 0.0 
2.88461 2.04866 0.0 
2.88003 2.04882 0.0 
2.23871 2.54735 0.0 
4.89274 1.80891 0.0 
2.87462 2.04899 0.0 
4.91952 1.8793 0.0 
2.86962 2.04914 0.0 
3.16832 1.96397 0.0 
3.08269 2.05271 0.0 
2.85755 2.04945 0.0 
2.86213 2.04934 0.0 
3.83352 1.80343 0.0 
1.99138 0.466601 0.0 
2.85213 2.04957 0.0 
3.35426 1.97588 0.0 
2.84714 2.04967 0.0 
4.97208 1.80831 0.0 
2.84214 2.04975 0.0 
2.83714 2.04983 0.0 
4.92758 2.16806 0.0 
2.7008 2.0473 0.0 
2.83214 2.04989 0.0 
2.82714 2.04994 0.0 
7.28937 1.75406 0.0 
2.81965 2.04999 0.0 
2.82215 2.04997 0.0 
2.91523 2.08308 0.0 
8.55013 1.43113 0.0 
2.81215 2.05001 0.0 
2.80472 2.05001 0.0 
2.79507 2.04997 0.0 
2.79965 2.05 0.0 
2.56828 2.09568 0.0 
9.67045 2.65554 0.0 
2.78966 2.04993 0.0 
7.11229 1.78085 0.0 
2.78466 2.04988 0.0 
9.45522 2.67434 0.0 
2.77966 2.04982 0.0 
9.53318 2.93248 0.0 
2.77466 2.04975 0.0 
2.77357 2.05366 0.0 
2.77216 2.04971 0.0 
2.76716 2.04961 0.0 
2.76467 2.04956 0.0 
2.88761 1.91732 0.0 
2.75967 2.04946 0.0 
2.75467 2.04934 0.0 
2.61204 2.04876 0.0 
2.74967 2.0492 0.0 
11.084 1.21227 0.0 
2.74468 2.04906 0.0 
9.51856 2.75585 0.0 
2.73968 2.04891 0.0 
2.73469 2.04874 0.0 
9.41426 2.76593 0.0 
2.73219 2.04865 0.0 
2.72719 2.04847 0.0 
2.72261 2.04829 0.0 
9.02509 3.02808 0.0 
2.90607 0.94266 0.0 
2.7172 2.04806 0.0 
8.83747 2.67733 0.0 
2.70763 2.04763 0.0 
2.71221 2.04785 0.0 
9.71146 3.01699 0.0 
2.70472 2.0475 0.0 
2.67763 2.04605 0.0 
2.69045 2.04677 0.0 
2.69475 2.047 0.0 
1.9774 2.58749 0.0 
7.53821 2.98852 0.0 
2.68477 2.04646 0.0 
8.60801 1.34768 0.0 
9.08517 2.9436 0.0 
2.67479 2.04588 0.0 
9.04251 2.70224 0.0 
2.66978 2.04558 0.0 
2.6648 2.04526 0.0 
9.54317 3.11127 0.0 
2.65981 2.04494 0.0 
8.79605 3.01706 0.0 
2.65482 2.04461 0.0 
10.9402 0 0.0 
2.64741 2.04409 0.0 
8.98557 2.77888 0.0 
7.99404 0.835602 0.0 
2.63986 2.04355 0.0 
8.08672 1.03965 0.0 
2.63239 2.04298 0.0 
8.27174 0.700244 0.0 
2.62498 2.0424 0.0 
8.23459 1.16471 0.0 
2.62242 2.0422 0.0 
8.44244 0.812526 0.0 
2.61495 2.04158 0.0 
9.08968 2.78231 0.0 
2.60755 2.04095 0.0 
3.26069 1.9421 0.0 
7.02001 2.11165 0.0 
2.60001 2.04028 0.0 
6.02795 3.01378 0.0 
2.58798 2.03916 0.0 
2.59254 2.03959 0.0 
9.25273 3.02889 0.0 
8.138 0.956264 0.0 
8.97315 2.9414 0.0 
2.58259 2.03864 0.0 
9.48118 3.02349 0.0 
9.42679 3.11389 0.0 
2.57513 2.0379 0.0 
2.57264 2.03764 0.0 
2.57016 2.03735 0.0 
2.56768 2.03702 0.0 
2.56522 2.03662 0.0 
2.56276 2.03616 0.0 
2.56031 2.03565 0.0 
2.55788 2.03508 0.0 
2.55546 2.03446 0.0 
2.55305 2.03379 0.0 
2.55066 2.03307 0.0 
2.54828 2.0323 0.0 
2.54592 2.03148 0.0 
2.54357 2.03062 0.0 
2.54124 2.02971 0.0 
2.53893 2.02876 0.0 
2.53664 2.02777 0.0 
2.53436 2.02674 0.0 
2.5321 2.02567 0.0 
2.52986 2.02456 0.0 
2.52764 2.02342 0.0 
2.52544 2.02224 0.0 
2.52325 2.02103 0.0 
2.52108 2.01978 0.0 
2.51893 2.01851 0.0 
2.5168 2.0172 0.0 
2.51469 2.01587 0.0 
2.51259 2.01451 0.0 
2.51052 2.01312 0.0 
2.50845 2.0117 0.0 
2.50644 2.01022 0.0 
2.50456 2.00858 0.0 
2.50283 2.00678 0.0 
2.50139 2.00474 0.0 
2.50037 2.00246 0.0 
2.5 2 0.0 
2.50037 1.99754 0.0 
2.50139 1.99526 0.0 
2.50283 1.99322 0.0 
2.50456 1.99142 0.0 
2.50644 1.98978 0.0 
2.50845 1.9883 0.0 
2.51052 1.98688 0.0 
2.51259 1.98549 0.0 
2.51469 1.98413 0.0 
2.5168 1.9828 0.0 
2.51893 1.98149 0.0 
2.52108 1.98022 0.0 
2.52325 1.97897 0.0 
2.52544 1.97776 0.0 
2.52764 1.97658 0.0 
2.52986 1.97544 0.0 
2.5321 1.97433 0.0 
2.53436 1.97326 0.0 
2.53664 1.97223 0.0 
2.53893 1.97124 0.0 
2.54124 1.97029 0.0 
2.54357 1.96938 0.0 
2.54592 1.96852 0.0 
2.54828 1.9677 0.0 
2.55066 1.96693 0.0 
2.55305 1.96621 0.0 
2.55546 1.96554 0.0 
2.55788 1.96492 0.0 
2.56031 1.96435 0.0 
2.56276 1.96384 0.0 
2.56522 1.96338 0.0 
2.56768 1.96298 0.0 
2.57016 1.96265 0.0 
2.57264 1.96236 0.0 
2.57513 1.9621 0.0 
2.58259 1.96136 0.0 
9.4207 2.93743 0.0 
2.58998 1.96065 0.0 
3.98658 2.29518 0.0 
2.59503 1.96018 0.0 
2.60001 1.95972 0.0 
6.22005 2.37044 0.0 
2.60499 1.95928 0.0 
2.60997 1.95884 0.0 
6.91081 2.08293 0.0 
2.61495 1.95842 0.0 
2.61993 1.95801 0.0 
3.54774 3.10713 0.0 
2.62491 1.9576 0.0 
2.62989 1.95721 0.0 
6.98955 2.0142 0.0 
2.63488 1.95683 0.0 
2.63986 1.95645 0.0 
2.64485 1.95609 0.0 
8.49786 1.32222 0.0 
2.64983 1.95574 0.0 
2.6623 1.9549 0.0 
2.65482 1.95539 0.0 
2.65981 1.95506 0.0 
3.2189 1.74889 0.0 
8.49913 0.920716 0.0 
2.66729 1.95458 0.0 
11.2956 1.25205 0.0 
8.33045 1.37709 0.0 
2.67228 1.95427 0.0 
2.67727 1.95397 0.0 
8.17582 1.24674 0.0 
2.68475 1.95354 0.0 
2.49804 1.96801 0.0 
2.69217 1.95314 0.0 
11.1454 3.21 0.0 
2.69723 1.95288 0.0 
2.69973 1.95275 0.0 
2.3268 2.06885 0.0 
2.70715 1.95239 0.0 
10.5232 0 0.0 
8.50019 1.12356 0.0 
2.71221 1.95215 0.0 
2.7172 1.95194 0.0 
8.3417 0.993717 0.0 
2.7222 1.95173 0.0 
9.88084 4 0.0 
2.72719 1.95153 0.0 
2.8842 0.859554 0.0 
3.49002 1.96998 0.0 
2.73219 1.95135 0.0 
2.73718 1.95118 0.0 
5.10414 2.07507 0.0 
2.91695 1.9527 0.0 
2.74218 1.95102 0.0 
5.3774 1.70986 0.0 
2.74967 1.9508 0.0 
2.76007 1.95054 0.0 
2.7571 1.9506 0.0 
3.36568 2.2764 0.0 
7.47742 0 0.0 
2.76467 1.95043 0.0 
2.76966 1.95034 0.0 
4.77815 1.95213 0.0 
2.77216 1.95029 0.0 
2.77716 1.95021 0.0 
2.77966 1.95018 0.0 
2.78466 1.95012 0.0 
2.79209 1.95005 0.0 
5.03873 1.95058 0.0 
2.79715 1.95001 0.0 
1.99981 0.970934 0.0 
1.27156 0 0.0 
2.80215 1.94999 0.0 
2.80715 1.94998 0.0 
2.70137 2.05773 0.0 
2.81215 1.94999 0.0 
2.81715 1.95 0.0 
5.03761 2.08905 0.0 
4.79212 2.10148 0.0 
4.31445 2.91606 0.0 
2.82215 1.95003 0.0 
2.82714 1.95006 0.0 
2.82964 1.95009 0.0 
3.65447 2.89863 0.0 
2.83707 1.95017 0.0 
2.84464 1.95029 0.0 
2.84964 1.95038 0.0 
2.89729 2.14643 0.0 
2.85463 1.95048 0.0 
5.01917 1.52083 0.0 
5.09414 1.88439 0.0 
2.86213 1.95066 0.0 
2.86713 1.95079 0.0 
1.93032 0.951933 0.0 
2.87212 1.95093 0.0 
2.87712 1.95109 0.0 
4.98716 2.23392 0.0 
2.88211 1.95125 0.0 
8.71077 1.56521 0.0 
2.88711 1.95143 0.0 
3.46832 2.9365 0.0 
2.8921 1.95162 0.0 
7.19803 1.42613 0.0 
2.8971 1.95183 0.0 
5.24929 1.82803 0.0 
2.90417 1.95213 0.0 
2.91208 1.95248 0.0 
5.14871 1.60688 0.0 
2.92207 1.95294 0.0 
4.89661 2.23773 0.0 
2.93157 1.95339 0.0 
1.73985 0 0.0 
2.94154 1.95387 0.0 
2.95152 1.95437 0.0 
3.265 1.95283 0.0 
2.96201 1.95491 0.0 
6.67078 2.29597 0.0 
2.9715 1.95541 0.0 
2.62651 0.834496 0.0 
2.98147 1.95595 0.0 
0.966707 1.21788 0.0 
2.99145 1.95651 0.0 
5.25744 2.73845 0.0 
3.00193 1.95711 0.0 
6.52802 2.19105 0.0 
3.01143 1.95767 0.0 
2.90505 2.09926 0.0 
3.02139 1.95827 0.0 
2.753 0.841277 0.0 
3.03137 1.95889 0.0 
2.99844 0.894889 0.0 
3.04135 1.95952 0.0 
9.51621 0 0.0 
3.05132 1.96016 0.0 
3.26487 0.901939 0.0 
3.0618 1.96086 0.0 
3.10563 0.897859 0.0 
3.07177 1.96153 0.0 
0.769062 1.4551 0.0 
3.08126 1.96219 0.0 
7.49513 1.84191 0.0 
3.09172 1.96293 0.0 
3.09837 1.96341 0.0 
5.34521 2.79577 0.0 
5.46911 2.95892 0.0 
3.11166 1.96438 0.0 
3.24832 1.07209 0.0 
3.12114 1.96509 0.0 
3.1311 1.96585 0.0 
4.3623 2.87048 0.0 
3.14156 1.96667 0.0 
2.3833 1.36142 0.0 
3.15104 1.96742 0.0 
2.50734 1.97768 0.0 
7.70131 1.92986 0.0 
3.17146 1.96907 0.0 
1.93157 1.3502 0.0 
3.18336 1.97004 0.0 
6.42434 2.17873 0.0 
3.20135 1.97152 0.0 
3.22072 1.97314 0.0 
6.86225 2.24295 0.0 
4.29881 2.84557 0.0 
3.23123 1.97403 0.0 
6.44308 2.27009 0.0 
3.24555 1.97525 0.0 
8.49219 0 0.0 
3.26112 1.97659 0.0 
4.5232 0.770706 0.0 
6.57934 2.01815 0.0 
3.28104 1.97833 0.0 
6.06214 2.48321 0.0 
9.43759 0.323459 0.0 
3.30038 1.98003 0.0 
8.26583 1.45566 0.0 
2.41841 2.51196 0.0 
3.31787 1.9816 0.0 
7.37995 1.40187 0.0 
3.33233 1.9829 0.0 
8.37767 1.48423 0.0 
8.68938 1.7583 0.0 
3.35073 1.98458 0.0 
1.50522 0 0.0 
3.37064 1.98642 0.0 
1.04781 0 0.0 
9.00924 4 0.0 
3.39055 1.98829 0.0 
8.22608 1.63221 0.0 
6.58569 2.36933 0.0 
3.41483 1.99059 0.0 
[...]
<PointData>
  <DataArray type = "Float64" Name="BLMLevelSetLayer1" format="ascii">
0.324037
0.324037
-2.87565
-8.40785
-2.87565
-8.40785
-2.48547
-1.6464
-4.43563
0.321545
0.324037
0.324038
-6.12019
-1.21352
0.324037
0.311951
0.324037
-0.928316
0.324037
0.320172
0.324037
-0.476443
-0.245121
-6.20257
0.324037
-4.6839
0.324037
0.324037
0.000666961
0.324038
-4.68901
-0.743521
0.324037
-7.66742
0.324037
-2.49729
-4.84286
-0.386705
0.324037
-0.985939
-4.51269
0.324037
0.324037
0.324036
0.324037
0.234994
-1.43216
0.324037
0.324038
-1.55939
-0.956008
0.324036
-6.83276
0.324036
0.121829
0.324037
0.312117
0.324037
-5.12277
0.324037
0.308131
0.324037
-0.705749
0.324037
-0.899778
0.324037
0.324036
0.324036
0.30466
0.324036
-1.83163
0.324036
-4.88715
0.324036
0.324036
-0.506865
0.324037
0.198702
-6.11902
0.324035
-0.587519
0.324036
0.320304
0.324036
-1.6633
0.324037
0.320472
0.324037
-6.23591
0.324036
0.324038
0.321099
0.317854
0.324036
-1.76369
0.324037
-2.04865
-7.09576
0.324033
0.324033
-4.53946
0.324033
-5.46627
0.324033
0.324035
-0.274259
-1.08161
0.324033
-1.10052
0.324033
0.319205
0.309071
0.324033
0.324037
-0.0625714
-1.27698
0.324037
0.315047
0.324032
-1.16033
0.324037
0.324032
-1.11328
0.324037
0.324037
0.324032
-3.47324
0.324033
0.324037
0.288364
-4.75791
0.324037
0.324033
0.324034
0.324032
0.265854
-5.88102
0.324033
-3.29483
0.324033
-5.66913
0.324033
-5.78062
0.324033
0.320101
0.324037
0.324032
0.324033
0.289925
0.324032
0.324033
0.316636
0.324033
-7.30067
0.324033
-5.74167
0.324033
0.324033
-5.63948
0.324037
0.324032
0.324038
-5.2957
-0.684806
0.324032
-5.05611
0.324033
0.324037
-5.96995
0.324034
0.324035
0.324036
0.324034
-0.459252
-3.83315
0.324034
-4.82532
-5.3401
0.324034
-5.26265
0.324033
0.324034
-5.82027
0.324034
-5.06859
0.324034
-7.38006
0.324033
-5.21641
-4.31813
0.324033
-4.36193
0.324037
-4.62127
0.324034
-4.48349
0.324037
-4.75881
0.324034
-5.31997
0.324032
0.289713
-3.19771
0.324033
-2.39923
0.324033
0.324037
-5.51979
-4.42972
-5.2293
0.324037
-5.7439
-5.70633
0.324027
0.324037
0.323955
0.32392
0.32395
0.324037
0.323955
0.323928
0.323956
0.324037
0.323962
0.323937
0.323963
0.324037
0.323969
0.323947
0.32397
0.324037
0.323976
0.323956
0.323977
0.324037
0.323982
0.323965
0.323983
0.324037
0.323987
0.323968
0.323991
0.324037
0.323683
0.323525
0.323603
0.324037
0.323024
0.32265
0.323024
0.324037
0.323603
0.323525
0.323683
0.324037
0.323991
0.323968
0.323987
0.324037
0.323983
0.323965
0.323982
0.324037
0.323977
0.323956
0.323976
0.324037
0.32397
0.323947
0.323969
0.324037
0.323963
0.323937
0.323962
0.324037
0.323956
0.323928
0.323955
0.324037
0.32395
0.32392
0.323955
0.324037
0.324027
0.324037
-5.67025
0.324034
-0.244535
0.324033
0.324033
-2.42098
0.324033
0.324033
-3.08776
0.324033
0.324034
-0.781371
0.324033
0.324034
-3.16554
0.324033
0.324034
0.324034
-4.71943
0.324034
0.324038
0.324033
0.324034
0.100712
-4.79005
0.324032
-7.50726
-4.54628
0.324037
0.324032
-4.4119
0.324033
0.301368
0.324037
-7.41634
0.324033
0.324034
0.138049
0.324033
-6.97812
-4.7522
0.324037
0.324032
-4.62092
0.324037
-6.36258
0.324032
-0.767284
0.296203
0.324037
0.324032
-1.28181
0.324036
0.324037
-1.57549
0.324033
0.324035
0.324032
0.0627762
-4.12744
0.324032
0.324033
-0.954969
0.324037
0.324032
0.324033
0.324032
0.324037
-1.21546
0.324032
-0.811737
-2.01735
0.324037
0.324032
0.313655
0.324037
0.324032
-1.21609
-0.971976
-0.900936
0.324037
0.324032
0.324033
-0.586741
0.324032
0.324032
0.324033
0.225848
0.324033
-1.26859
-1.27422
0.324037
0.324032
-0.861916
0.324037
0.324032
-1.18125
0.324037
-4.90475
0.324032
-0.603971
0.324037
-3.41809
0.324032
-1.43358
0.324036
0.324037
-1.37065
0.324037
-1.09249
0.324037
-1.80303
0.324037
0.324037
0.300031
0.324037
-2.86043
0.324037
-0.796522
0.324037
-1.3963
0.324037
-1.58184
0.324037
-2.70994
0.324037
0.272655
0.324037
-0.785145
0.324037
-0.736463
0.324037
-6.01557
0.324037
-0.747154
0.324037
-0.739564
0.324037
-1.49055
0.324037
-3.67418
0.324037
0.324036
-1.68504
-1.86569
0.324037
-0.576217
0.324037
0.324037
-0.900495
0.324037
-0.304121
0.324037
0.314555
-3.87784
0.324037
-0.536171
0.324037
-2.6057
0.324037
0.324038
-3.0469
-0.838424
0.324037
-2.63131
0.324036
-5.05349
0.324037
-1.27457
-2.75535
0.324037
-2.28308
-5.84542
0.324037
-4.47266
-0.172725
0.324036
-3.60159
0.324037
-4.58072
-4.87092
0.324037
-1.90136
0.324037
-2.14311
-5.53664
0.324037
-4.41625
-2.78355
0.324036
-2.89535
0.324037
-5.76776
0.324036
-2.33271
-4.12909
0.324037
0.324038
-1.68388
-1.29617
-2.68425
-2.50202
-3.65287
-8.03269
-3.7662
-1.66591
-1.72421
-6.55114
-5.69837
-8.19144
-8.20965
-8.23492
-2.13782
-1.91665
-2.02466
-5.49145
-2.16999
-2.03357
-2.1429
-4.31966
-3.75412
-1.71136
-7.1752
-7.58531
-3.74722
-6.75202
-4.54053
-8.26739
-8.35403
-6.78148
-0.17448
-8.30712
-2.02601
-8.20983
-6.53877
-6.3499
-7.89655
-4.69581
-8.21145
-6.96028
-5.93594
-1.03163
-1.6271
-5.37539
-8.17601
-8.17797
-8.16468
-5.46353
-2.72266
-7.17058
-0.467545
-3.71634
-3.75696
-8.23982
-4.87125
-7.37856
-5.96584
-3.09786
-3.24155
-8.26723
-8.30712
-8.35403
-7.67961
-0.90394
-2.50297
-2.04827
-4.82906
-2.27375
-3.80064
-1.50075
-2.68566
-3.81738
-2.33681
-0.340812
-2.85379
-2.17512
-0.737755
-0.735409
-1.7365
-1.69049
-3.31851
-1.63647
-1.91109
-1.81098
-5.35309
-3.66877
-2.50365
-5.4365
-2.60599
-1.62832
-1.80909
-1.73797
-1.65644
-0.949283
-1.62667
-4.45461
-1.6452
-3.81567
-1.90726
-2.72602
-2.22483
-2.50202
-1.15391
-2.02894
-2.17172
-2.3303
-2.22591
-2.78817
-2.68425
-5.32072
-5.67273
-0.262661
-3.58966
-0.700502
-2.72602
-2.18934
-2.17735
-2.18934
-6.17543
-2.28601
-2.36808
-2.47017
-2.59019
-0.739256
-2.97769
-0.307337
-2.00048
-5.50796
-0.386075
-7.21144
-2.13579
-1.28724
-0.284769
-0.721304
-1.98889
-5.58995
-1.70247
-5.79462
-4.93604
-0.367676
-0.355343
-5.21442
-0.0841415
-6.04719
-0.0368177
-2.88209
-7.35333
-0.318053
-3.68774
0.280749
-0.110218
-0.729532
-6.75212
-1.71279
-0.719105
0.302363
-4.52973
-2.26333
0.32072
-0.627777
-4.48261
0.23499
-0.122265
-0.72093
-2.07744
-7.58056
-0.680861
-5.23086
-5.01635
0.250885
-1.42619
-0.100583
-1.58585
0.0706334
-0.696251
-1.20266
-3.05514
-0.931301
-0.852964
-5.23524
-4.88879
-0.567232
-0.289845
0.321888
-0.791016
-2.65166
-0.267419
-2.4761
-0.727685
-0.155638
-4.98623
-5.11284
-0.483759
-5.00861
-0.240899
-2.8872
-1.48035
-5.1247
0.289925
-4.94037
-0.716256
-2.64767
-2.5934
-2.4435
-0.739057
-4.37154
-1.02626
-0.298336
-0.959127
-0.246156
-0.715896
-4.00452
-4.64542
0.118896
-1.61507
-0.693005
-4.94899
-4.73145
0.241558
-2.81822
-2.91357
-4.44241
-4.74783
-0.626831
-1.64988
-2.82748
-3.48508
-0.728218
0.302223
-0.176058
-0.404367
-2.79742
0.295634
-0.63748
-2.66446
-3.12632
0.316374
-3.02833
-2.33471
-1.52366
-0.452357
0.295454
-2.74455
-2.63855
-4.28274
-4.77487
-3.02769
-0.726576
0.27999
-4.75679
-0.723988
-0.10709
-1.32388
-0.166005
-1.33335
0.268092
-0.301222
-0.484248
-0.220123
0.119702
-7.57686
-2.80624
-4.79657
-0.195016
-4.64254
-0.383285
-4.29473
-0.453564
-2.69338
-8.03014
0.31472
-4.34655
-4.5948
0.264418
-4.61457
-4.41258
0.321297
-4.69044
-4.83547
-7.03971
0.311893
-2.66678
-1.70252
-1.5141
-1.60522
0.186772
-0.863799
-4.97629
-2.12939
0.0205986
-2.49876
-2.22731
-4.95544
0.305075
-1.6052
-8.14479
-1.24264
-0.439886
-0.950872
-2.57737
0.264729
-1.95305
-2.22597
-2.54027
-2.5697
-1.16577
-2.52138
-1.7564
-2.4425
-3.92777
-4.90346
-1.92953
-0.461437
-0.606598
-1.26787
-2.62061
-4.98163
0.306337
-0.79829
-1.57963
-0.646246
-2.14072
-1.034
-2.46127
-3.01783
-2.83431
-2.25871
-2.61753
-2.92889
-0.204724
-2.83944
0.194505
-1.02595
-2.71119
-2.66938
-2.64036
-1.00616
-1.49323
-7.94334
-1.17747
-3.90028
-7.43242
-3.02237
-0.858693
-1.08979
-0.660666
0.311198
0.254817
-0.384858
-1.5814
-7.36416
-0.603796
-7.81969
-0.00115107
-7.64876
-1.17306
-0.933462
0.243617
-7.85488
-6.57207
-0.0586652
-7.6031
-4.15078
-7.93328
-1.78731
-1.37098
-0.170079
-0.845725
-1.05497
-7.81824
0.25754
0.31138
-1.88737
-4.96822
-1.35902
-6.175
-0.900289
-0.503229
-3.11068
-1.25507
0.250631
0.274432
-2.41449
-1.4078
-6.74632
-3.27214
-8.08501
-0.541062
-8.10171
-0.5798
-0.864179
-0.450096
0.317466
-1.23404
-0.493276
-4.14774
0.307052
-3.25023
-3.98688
-0.811379
-0.820654
-1.10373
-4.2687
-1.6106
-4.85126
0.307337
-2.4898
0.298377
0.300583
-1.43068
-3.34694
-2.03646
-2.32141
-0.825602
-1.40939
0.205831
-3.35332
-2.03001
-1.14965
-1.48804
0.284538
-2.85235
0.320948
-0.158152
0.227625
-1.27702
-3.3194
-1.19958
-3.23176
-4.9071
-3.0755
-1.06987
-2.94073
-0.956627
-4.82564
-1.55404
-4.09013
-6.41834
-5.89905
-2.26331
-3.02656
-0.516268
-3.06068
-0.335248
-2.02985
0.189509
0.0950721
-2.98548
-0.484592
-0.856066
-6.0498
-2.91838
-4.76323
0.178049
-0.887637
0.297543
-1.43369
-1.22992
-5.03421
0.241086
-5.9346
-1.3705
-3.51539
-3.79831
0.254106
-4.80008
-4.05642
-4.90516
-4.92052
-0.0664523
-0.509974
-0.352761
-6.09721
-0.472199
-1.2542
-0.697594
-4.71606
-2.97696
-6.36503
-1.85074
-3.48041
0.309264
-1.80218
-2.23548
-1.35364
-2.58612
0.287988
0.25795
-1.84447
-1.20429
-4.03941
0.286929
-3.55571
-2.42898
-0.147788
-2.42453
0.264156
-1.30361
0.191482
-1.72169
0.252307
-1.61607
-1.68464
0.294117
-5.79257
-0.203896
-1.64797
-2.6347
-0.889887
-1.66977
-0.500649
-0.843438
-3.21528
-1.75744
-1.15629
-0.192408
-1.49835
-0.721767
-0.393496
-1.10396
0.316181
0.269998
-0.619152
-0.965767
-0.796739
-1.80737
-5.60295
-1.69611
-0.573912
-0.494963
0.264241
-1.93079
-0.0222182
-3.0065
-5.20661
-0.972946
-0.20505
-0.498773
-0.299015
-0.840774
-0.871893
-2.44212
-0.132395
-0.943213
-1.85782
-5.36225
0.124782
-0.0454019
-0.568154
-2.72776
0.206704
-0.499888
-2.65176
-2.59583
-2.23861
-0.198166
-0.508166
0.318336
-2.66011
-2.14591
-2.40956
-0.706561
-2.78697
-0.811634
-0.142648
-0.111478
-0.810375
-0.350288
-2.55859
-2.50927
0.296105
-2.26641
-1.29322
-2.24017
-1.27827
0.00863588
-1.99723
-1.32333
-2.48616
-0.0428203
-4.26647
-2.3203
-1.18795
-0.0608175
-0.0790569
0.0831433
-0.297606
-2.20793
-5.49224
-0.175066
-5.63963
0.00947424
-0.389913
0.0217742
-0.585021
-0.478955
-5.5544
-0.353823
-1.14648
-0.980033
0.0413932
0.288656
0.0550102
-2.18902
-2.8211
-2.21523
-2.17602
-2.30099
-0.318557
-2.9367
-3.44732
-4.55709
-3.07312
-2.15256
-1.98491
-2.14204
-0.778932
-0.820139
0.189224
-6.86809
-0.567147
-1.45939
-2.68344
-1.52856
-1.91463
-0.0149989
-0.403248
-2.08986
-1.16704
-2.97909
0.29092
-2.04059
-2.63122
-0.740636
-2.03864
-1.54553
-0.560772
0.25203
-0.365654
-1.80911
-1.04114
0.236861
-1.35217
-3.04978
-0.88562
-2.09789
-4.49856
-2.66428
-0.729419
-0.143983
-1.7426
-5.64814
-2.86632
0.242818
0.314848
-1.2234
-1.9192
-3.01139
-6.63222
-1.63897
0.224065
-1.03075
-1.02947
-7.01652
-0.275018
-0.439946
-5.05889
-1.01714
-5.10161
-0.57989
-3.10043
-2.80341
-6.50657
-1.05309
-0.549826
0.279705
-4.03634
-2.16954
-0.666789
0.293032
-1.92923
-4.7806
-0.520487
-0.874164
-0.362778
-3.8379
0.241909
-1.87645
-0.188795
-1.1682
-1.39662
-0.203585
-0.866018
-0.0902183
0.287836
-1.79226
0.269283
-6.03127
-1.63996
-0.782369
0.0796134
0.173492
0.312028
-0.543209
-1.85139
0.28357
-2.55087
-7.52498
0.285654
-3.87278
-6.73998
-3.32784
-0.29223
-0.173951
-0.829948
-0.572882
-0.90432
0.314999
-0.762761
-0.438233
-0.0341295
0.0166657
-1.55946
0.294563
-7.38075
-0.387609
-0.439652
0.287837
0.166416
-2.35911
-0.625985
-0.543338
-3.44302
-3.72239
-1.37733
-0.967248
-0.733179
-1.92782
-4.12661
-0.566605
-4.38192
-0.108891
-0.432792
-0.667247
-0.486709
-0.266579
-0.386528
0.309104
-0.234299
-6.38297
-0.780849
-0.940813
-0.964561
-4.20455
-0.245114
-0.746629
-0.0371358
-5.21082
-0.403964
-7.37991
0.0773656
-0.137285
-0.961703
-6.14383
-0.834673
-7.17178
-2.92491
-0.998528
-2.6723
-0.261959
-0.796392
-0.33316
0.288433
-7.6321
-7.25022
-0.211098
-7.25078
-0.652812
-0.243423
-0.305438
-1.08324
-0.0812308
-2.47071
-6.40591
-7.47164
-7.86481
-0.848756
-0.359827
-0.68091
-0.481312
-4.19335
0.279616
-8.08026
-7.57482
-2.9024
-0.789341
-0.602226
-1.25971
-0.610336
0.250996
-3.60669
-7.77236
-7.40175
-0.666912
-0.804672
-0.174673
-1.40892
-0.57687
-3.73181
-0.66839
0.282782
-7.68517
-0.716035
-6.11417
-0.456158
0.263607
-5.30621
-0.337425
-5.43637
-3.92404
-7.09795
0.31228
-0.618985
-0.699545
0.302576
-7.95681
-4.07218
0.314607
-7.7139
-2.86149
-7.76748
-2.95466
-1.61352
-0.0983284
-0.918239
0.0459173
0.207877
-0.733829
-6.4014
-5.83447
-4.7338
-0.079897
-0.522405
-5.63677
-5.48791
-0.277249
-4.99594
-0.544352
-1.94661
-2.83636
-7.04007
-5.63983
-6.27353
-2.56716
-2.93917
-0.383291
-6.98882
-3.82187
0.310146
-4.33621
-0.186102
0.252533
-0.410697
-1.02107
-7.98641
-3.77556
-0.575913
-0.251652
-7.92147
-0.562372
-0.69165
-3.02359
-1.35373
-0.974964
-6.8912
-0.490041
-0.575454
-2.05432
-2.37507
-0.234067
-7.79352
-0.184143
-2.01266
-2.04694
-0.0536599
-2.9326
-0.137267
-0.361218
-3.31097
-1.95206
-6.44581
-4.48669
-3.7007
-3.2731
-3.67725
0.293255
-0.55734
-0.52883
0.294689
-0.173068
-0.327266
-3.34337
-3.2153
-2.034
-3.65908
-1.06474
0.304993
-4.26011
-4.58248
-2.12069
-0.106696
-3.72722
-1.69162
-0.664288
-0.55751
-0.0667583
-0.425775
0.30212
-3.13123
0.307136
-3.73428
-3.86035
-0.151611
-2.1615
-6.25011
-3.65006
-2.72575
0.0424744
-2.89915
-0.774615
-2.45191
-4.05487
-0.395808
0.235994
0.300282
-2.45441
-4.53702
-0.211414
-0.598395
-0.605339
0.31712
-2.074
-0.430816
-4.48627
-0.585209
-1.8698
-0.066808
-0.0804415
-1.85181
-0.303337
-0.547586
-1.8161
-4.26495
-1.94695
-1.72302
-7.81888
0.243161
-4.31711
-2.86326
-1.73694
-3.3845
-0.6866
-0.965259
-1.94411
-2.02229
-1.75814
0.293213
-0.176425
0.180874
-0.63936
-6.112
0.280786
-2.32915
-4.21513
-1.50106
-2.68719
-1.67332
-0.49349
-1.86599
-6.26553
-4.71941
0.281913
-1.784
-3.90755
-6.70738
-0.381322
-5.03191
-4.32249
-7.96444
-7.90282
-7.98845
-7.49924
-6.14634
-0.120512
-1.68206
0.286206
-6.69176
-2.76726
-3.88398
0.290975
-0.221947
-5.4405
-2.89437
-1.52875
-0.804614
-6.31946
-0.203007
-4.65832
-0.607141
-0.535605
0.225955
-0.236934
-5.69916
-3.97818
-4.02325
0.186637
-4.53232
-2.23156
-2.3409
0.305518
-3.50326
-2.42846
0.295741
-4.1522
-2.42178
0.300517
-0.0624193
0.243186
-0.848458
-0.802776
-2.32383
-0.400049
-0.862842
-2.24082
-2.59509
-4.80981
0.268658
-0.143196
-0.426904
-4.86423
-4.04373
-0.147726
-4.7263
-4.92419
-6.70562
-4.13658
0.310699
-0.733447
-0.668334
-4.16964
-2.71259
-0.224777
-2.49545
-5.90842
-6.59785
-0.749486
-3.57347
-0.828715
-1.35555
-1.97019
-1.29943
-2.12212
-1.89303
-1.3763
-4.29132
-0.300548
-2.73125
-4.27535
-2.82908
-0.00311223
-1.34297
-1.44507
-0.521058
0.0322446
-1.50181
0.295335
-6.0273
-6.61551
-0.702363
-0.246137
-2.8102
-5.00249
-5.89005
-0.316907
-0.853974
-0.539909
-6.3575
-0.174897
-4.42926
-6.80903
-0.229016
-4.5551
0.251106
-5.31888
-1.31771
-5.49208
0.23164
-4.36815
-2.87952
-0.467956
-0.779484
0.117153
-3.22828
-1.07318
-0.491714
-3.66292
-5.20226
-2.00894
-0.318803
-0.941555
0.296524
-3.84523
-0.572535
-5.16114
-2.23386
-0.435445
-6.11357
-5.47924
-0.357058
-4.61609
-5.0575
-0.313284
-4.34132
-4.5651
-7.18006
-0.381355
-0.127744
-5.66848
-5.92637
-4.53974
-2.35874
-5.59222
-0.382155
-5.51499
-0.388004
0.32404
-2.76171
0.288181
-5.93505
-2.32417
-7.43997
-2.71799
-2.81938
0.32063
-4.72512
-4.47013
-0.445521
-4.67643
-7.18705
-3.90176
-0.328219
-0.98774
-3.3622
-2.06225
-2.36665
-0.568549
0.261113
-0.35686
-5.91236
-1.0791
-0.914715
-3.24418
-2.1864
-4.1522
-5.7716
-2.5846
-7.38772
0.319623
-0.676715
-6.8584
-3.32841
0.147689
-0.252528
-5.69668
-2.74488
-0.967843
-5.63081
-2.35138
-0.296083
0.317825
-2.60476
0.317102
-5.69741
-3.44202
-5.18957
-6.80393
0.319699
-3.45958
-0.185404
-0.221326
-5.59342
-2.52954
0.318913
-2.53556
-5.74664
-5.96478
0.319713
-6.47572
-3.2272
-2.60754
-6.62989
-5.79269
-5.84538
-5.98105
-5.99305
-4.73382
-0.905752
-2.20668
-0.30844
-4.85146
-0.824828
-6.23711
-6.07225
-6.07018
-5.86307
-5.82757
-0.345988
-0.975521
0.306729
-0.251627
-2.53751
-2.16503
-6.32721
-6.27887
-6.40767
-5.91033
-6.12188
-6.41504
0.275906
-6.30259
-4.87582
-6.44711
-5.79082
-6.17454
-4.9347
-2.34053
-5.01427
-2.40761
-0.403315
-5.21649
-5.48759
-4.64227
-5.16302
-5.51565
-5.28728
-2.26395
-5.15665
-2.39625
-6.22166
-4.10924
-4.68149
-6.34842
-6.09265
-0.483193
-0.780766
-5.31203
-7.93855
-5.11249
-2.13953
-5.59336
-5.2649
-5.00428
-7.99688
-2.626
-6.28019
-8.03066
-7.54126
-5.83129
-7.82354
-2.56052
-3.27289
-6.02807
-2.37078
0.315414
-0.918056
-3.76354
-4.94697
-2.82219
-2.4899
-5.96878
-5.34796
-1.58839
-4.76463
-2.51174
-4.23922
-0.946551
-2.82053
-5.04012
-1.43815
-2.30205
-5.46858
-5.40982
-4.85569
-2.73683
-4.71572
-3.14677
-5.88177
-5.03415
-3.23254
-4.8221
-5.82935
-5.04509
-4.89339
-0.0427688
0.3202
-5.00032
0.312565
-5.6292
-2.6354
-2.71884
-4.63678
-5.11053
-1.51492
-2.62656
-6.38394
-6.25658
0.242341
-1.12108
-5.24181
-5.5537
-0.382302
-1.10296
-3.21806
-3.04411
-1.55436
-0.364964
0.133453
-3.0304
-1.03165
-1.17778
-3.48995
0.319079
-0.858648
0.315958
-3.06208
-0.842539
-0.690952
0.312019
0.318922
-1.17571
-1.17553
-0.898138
-3.9535
0.320051
-1.25237
-1.1102
-0.946664
-6.3346
-3.12063
-4.14245
-1.03871
-7.06271
-1.33564
-2.18693
-1.85952
0.221338
-5.11436
-1.04269
-0.90387
-5.58068
-0.675328
-1.2002
-1.51983
-6.13183
-3.68659
-0.71898
-1.1928
-3.49545
0.321105
-0.873736
-1.35978
-6.21462
-6.29008
-1.05719
-1.42798
0.31944
-0.302216
0.266475
-0.241623
-5.31808
-3.74114
-3.71082
0.320878
-2.32516
-6.45702
-3.49634
-1.13539
-5.31628
-6.16684
-3.78011
-0.852197
-0.347159
-1.06357
0.321008
-0.697864
-1.67835
-0.72035
-5.22748
0.162925
-0.771255
0.170322
-2.61907
-0.920555
0.18677
-1.96253
-1.94571
-2.32019
-1.66803
0.320148
-1.76088
-0.557215
-1.14917
-2.05079
-0.387055
-2.01172
-0.372729
-2.10232
-0.379361
-0.767826
-5.20615
-0.746729
-0.825062
-1.19384
0.320244
0.299802
-2.44085
-0.853524
-0.720245
-0.317495
-1.08489
0.307982
-1.24125
-0.779992
-0.440458
-1.77651
-0.642468
-1.09609
-1.01767
-1.6214
-0.507501
-0.401282
-2.13276
-5.74144
-1.70712
-0.489444
0.30118
-0.260501
-3.19829
-5.67747
-0.62478
-0.109239
-1.90292
-1.59908
-0.433403
-0.485378
-1.67027
-5.08811
-0.463838
-1.04188
-5.40703
0.305997
0.316694
-0.278669
0.313805
-0.533595
-5.67236
-0.69467
-0.963908
-6.83528
-0.0251665
-0.164026
0.305508
0.299008
0.292682
-5.28126
-0.634219
0.288969
-3.10822
-0.709667
0.312783
0.227667
0.304149
-0.329687
-0.725233
-0.598115
-5.18012
-5.79144
-1.08962
-0.475984
-0.366207
-0.418931
0.00645935
-5.39864
0.264226
-0.239001
-0.254771
-0.889719
-0.820034
0.309319
-3.13544
-0.599283
-1.08836
-0.593574
-0.454259
0.296291
0.315339
-4.04084
-0.816646
-0.295039
-0.400845
-0.59522
-0.443279
0.31234
-7.01232
-0.486651
0.305373
-3.40576
0.316771
-7.17573
-0.496107
-1.24471
0.320589
0.273409
-6.37712
-0.815331
0.318622
0.303214
-6.53551
-1.2582
-0.505285
-6.94146
-6.63399
-0.650476
-4.969
0.275516
-0.718081
-4.97898
0.320571
-5.54191
-0.51645
-0.428511
-7.333
0.322423
-1.9461
0.280511
-5.62973
-0.487289
-0.482112
-1.98215
0.302124
-0.456241
-0.565835
-2.2827
-2.09482
-0.580164
0.089377
-4.61016
-5.85044
-1.11922
-7.18862
-0.663798
0.293016
-5.60806
-2.38513
-0.676353
-2.26967
-0.898655
-0.82343
-1.8279
-2.34497
-0.877165
-0.715944
-3.39373
-0.976745
-0.771287
-0.564412
-6.94701
-2.11792
-1.29499
-7.80541
-0.899437
-5.08652
-5.28976
-7.61071
-6.65578
-0.646951
-0.978016
-0.808476
-0.913991
-0.68022
-1.1982
-1.35432
-2.47252
0.306262
-1.15537
-0.81403
-1.03158
-1.3689
-7.73084
0.231604
-6.88213
-6.11185
-4.16047
0.315826
-1.0583
-0.418927
0.261135
-4.09412
-0.637529
0.304563
-0.918408
0.322568
0.246189
-1.10823
-4.72856
-3.9343
-2.45628
-7.90923
0.313691
-6.30123
0.23046
-0.970926
-2.52493
-3.93322
-2.05053
-0.78536
-5.58077
-2.47901
-0.943216
-2.64231
-0.590528
-5.20626
-0.531918
-4.23769
-1.34344
-4.25922
-1.494
-1.48037
-4.08847
-5.32169
-0.846653
-1.08758
-3.12973
0.297309
-1.11573
-1.09753
-0.825163
-1.71432
-7.69027
-1.1191
-0.525179
-1.93959
-7.80312
-1.14822
-0.355072
0.0726472
0.305328
-0.917293
0.309276
0.30509
-1.16855
-0.871198
-1.94781
-2.21142
-0.872042
0.145739
-2.22896
-0.948848
-2.01282
0.122294
-4.31292
-1.10165
0.176711
-4.34326
-2.25912
0.321258
-0.893166
-1.07378
0.195691
-2.68174
-0.24985
0.186648
-1.16579
-1.27443
0.206484
-1.26503
-6.81758
0.175933
0.0373885
0.163627