<VTKFile type="UnstructuredGrid" version="0.1" byte_order="LittleEndian">
  <UnstructuredGrid>
    <Piece NumberOfPoints="8001" NumberOfCells="15531">
      <Points>
        <DataArray type = "Float64" NumberOfComponents="3" format="ascii">
3.5 2.00105 0.0 
3.5 1.99895 0.0 
0 0 0.0 
12 0 0.0 
0 4 0.0 
12 4 0.0 
1.84154 2.93167 0.0 
3.25494 2.03688 0.0 
3.10942 0.895834 0.0 
2.3504 1.2816 0.0 
3.46822 2.00422 0.0 
3.4492 2.00609 0.0 
9.75011 0.429191 0.0 
4.04015 2.1502 0.0 
3.4284 2.00811 0.0 
3.2706 1.95357 0.0 
3.40943 2.00992 0.0 
4.29545 2.8495 0.0 
3.39055 2.01171 0.0 
10.5646 0.785159 0.0 
3.37064 2.01358 0.0 
2.95229 3.12558 0.0 
3.20659 1.74411 0.0 
1.98766 0.466428 0.0 
3.3441 2.01602 0.0 
4.3453 2.92915 0.0 
3.32932 2.01737 0.0 
3.31416 2.01873 0.0 
3.36876 2.26764 0.0 
3.30101 2.01991 0.0 
7.21287 1.13955 0.0 
1.98925 2.59642 0.0 
3.28104 2.02167 0.0 
11.443 2.87979 0.0 
3.26112 2.02341 0.0 
7.27082 2.03327 0.0 
4.89223 2.24166 0.0 
8.52854 3.57875 0.0 
3.23123 2.02597 0.0 
5.45562 0.605339 0.0 
8.28155 1.27045 0.0 
3.21131 2.02765 0.0 
3.20135 2.02848 0.0 
3.18889 2.02951 0.0 
3.17635 2.03053 0.0 
0.759789 2.22952 0.0 
1.92819 1.35187 0.0 
3.16034 2.03183 0.0 
3.15052 2.03262 0.0 
0.628639 2.20506 0.0 
2.48462 2.13876 0.0 
3.13957 2.03349 0.0 
5.05606 2.06882 0.0 
3.1296 2.03426 0.0 
6.48933 2.22857 0.0 
3.12171 2.03487 0.0 
7.00253 2.02527 0.0 
3.11166 2.03562 0.0 
5.5479 0.8972 0.0 
3.10169 2.03635 0.0 
2.24094 1.09496 0.0 
3.0922 2.03704 0.0 
9.87757 2.91797 0.0 
3.08224 2.03774 0.0 
6.05081 2.99563 0.0 
3.07177 2.03847 0.0 
3.05986 2.03927 0.0 
3.04983 2.03993 0.0 
8.14935 3.77389 0.0 
3.03985 2.04058 0.0 
4.30691 0 0.0 
3.02987 2.04121 0.0 
8.66013 2.72876 0.0 
3.0199 2.04182 0.0 
3.00992 2.04242 0.0 
3.11948 1.89192 0.0 
3.00193 2.04289 0.0 
10.1209 2.69308 0.0 
6.92709 2.09023 0.0 
2.98711 2.04373 0.0 
5.14803 1.60651 0.0 
2.97747 2.04427 0.0 
8.24797 3.03812 0.0 
2.96958 2.04469 0.0 
3.47062 0 0.0 
2.96201 2.04509 0.0 
2.75625 2.05237 0.0 
2.95043 2.04569 0.0 
9.9963 2.9126 0.0 
2.94005 2.0462 0.0 
2.93089 2.04665 0.0 
8.77216 0.419238 0.0 
9.38361 0.429139 0.0 
2.92007 2.04715 0.0 
9.25464 2.64568 0.0 
2.91208 2.04752 0.0 
4.90901 0.0899404 0.0 
10.8572 2.96282 0.0 
2.8996 2.04807 0.0 
2.8946 2.04828 0.0 
8.13323 0.520161 0.0 
2.88961 2.04847 0.0 
5.89953 0.314545 0.0 
2.88461 2.04866 0.0 
2.88003 2.04882 0.0 
6.68321 2.79689 0.0 
5.02233 1.95199 0.0 
2.87462 2.04899 0.0 
9.3892 0.860852 0.0 
2.86962 2.04914 0.0 
6.52954 2.17864 0.0 
7.53674 2.98455 0.0 
2.85755 2.04945 0.0 
2.86213 2.04934 0.0 
9.57905 1.49038 0.0 
11.0785 1.20913 0.0 
2.85213 2.04957 0.0 
3.57408 2.26596 0.0 
2.84714 2.04967 0.0 
5.38395 1.70771 0.0 
2.84214 2.04975 0.0 
2.83714 2.04983 0.0 
5.11063 2.0697 0.0 
2.7008 2.0473 0.0 
2.83214 2.04989 0.0 
2.82714 2.04994 0.0 
6.57339 0.583065 0.0 
2.81965 2.04999 0.0 
2.82215 2.04997 0.0 
4.30837 2.91686 0.0 
2.61779 0.941703 0.0 
2.81215 2.05001 0.0 
2.80472 2.05001 0.0 
2.79507 2.04997 0.0 
2.79965 2.05 0.0 
5.55584 1.18487 0.0 
8.13869 0.95685 0.0 
2.78966 2.04993 0.0 
3.26106 1.94076 0.0 
2.78466 2.04988 0.0 
9.45522 2.67434 0.0 
2.77966 2.04982 0.0 
7.88728 1.90278 0.0 
2.77466 2.04975 0.0 
3.66353 2.90597 0.0 
2.77216 2.04971 0.0 
2.76716 2.04961 0.0 
2.76467 2.04956 0.0 
10.1387 2.06273 0.0 
2.75967 2.04946 0.0 
2.75467 2.04934 0.0 
3.45593 2.95222 0.0 
2.74967 2.0492 0.0 
8.49499 2.49978 0.0 
2.74468 2.04906 0.0 
9.51856 2.75585 0.0 
2.73968 2.04891 0.0 
2.73469 2.04874 0.0 
9.41426 2.76593 0.0 
2.73219 2.04865 0.0 
2.72719 2.04847 0.0 
2.72261 2.04829 0.0 
2.90747 2.10005 0.0 
4.36168 2.87285 0.0 
2.7172 2.04806 0.0 
8.83747 2.67733 0.0 
7.32812 3.63799 0.0 
2.71221 2.04785 0.0 
4.79211 2.9601 0.0 
2.70472 2.0475 0.0 
2.67763 2.04605 0.0 
2.69045 2.04677 0.0 
2.69475 2.047 0.0 
6.62286 2.79864 0.0 
8.08719 1.03905 0.0 
2.68477 2.04646 0.0 
4.79305 1.92641 0.0 
6.21906 1.68508 0.0 
2.67479 2.04588 0.0 
9.04251 2.70224 0.0 
2.66978 2.04558 0.0 
2.6648 2.04526 0.0 
9.48102 3.02398 0.0 
2.65981 2.04494 0.0 
8.79605 3.01706 0.0 
2.65482 2.04461 0.0 
3.94272 1.77071 0.0 
2.64741 2.04409 0.0 
8.98557 2.77888 0.0 
7.99404 0.835602 0.0 
2.63986 2.04355 0.0 
2.71099 2.05731 0.0 
2.63239 2.04298 0.0 
8.27174 0.700244 0.0 
2.62498 2.0424 0.0 
8.23459 1.16471 0.0 
2.62242 2.0422 0.0 
8.44244 0.812526 0.0 
2.61495 2.04158 0.0 
9.08968 2.78231 0.0 
2.60755 2.04095 0.0 
9.42671 3.11439 0.0 
2.83378 1.93182 0.0 
2.60001 2.04028 0.0 
6.34571 0.857906 0.0 
2.58798 2.03916 0.0 
2.59254 2.03959 0.0 
8.65391 3.7908 0.0 
6.22163 2.37134 0.0 
8.97315 2.9414 0.0 
2.58259 2.03864 0.0 
9.42058 2.93769 0.0 
4.49796 2.70322 0.0 
2.57513 2.0379 0.0 
2.57264 2.03764 0.0 
2.57016 2.03735 0.0 
2.56768 2.03702 0.0 
2.56522 2.03662 0.0 
2.56276 2.03616 0.0 
2.56031 2.03565 0.0 
2.55788 2.03508 0.0 
2.55546 2.03446 0.0 
2.55305 2.03379 0.0 
2.55066 2.03307 0.0 
2.54828 2.0323 0.0 
2.54592 2.03148 0.0 
2.54357 2.03062 0.0 
2.54124 2.02971 0.0 
2.53893 2.02876 0.0 
2.53664 2.02777 0.0 
2.53436 2.02674 0.0 
2.5321 2.02567 0.0 
2.52986 2.02456 0.0 
2.52764 2.02342 0.0 
2.52544 2.02224 0.0 
2.52325 2.02103 0.0 
2.52108 2.01978 0.0 
2.51893 2.01851 0.0 
2.5168 2.0172 0.0 
2.51469 2.01587 0.0 
2.51259 2.01451 0.0 
2.51052 2.01312 0.0 
2.50845 2.0117 0.0 
2.50644 2.01022 0.0 
2.50456 2.00858 0.0 
2.50283 2.00678 0.0 
2.50139 2.00474 0.0 
2.50037 2.00246 0.0 
2.5 2 0.0 
2.50037 1.99754 0.0 
2.50139 1.99526 0.0 
2.50283 1.99322 0.0 
2.50456 1.99142 0.0 
2.50644 1.98978 0.0 
2.50845 1.9883 0.0 
2.51052 1.98688 0.0 
2.51259 1.98549 0.0 
2.51469 1.98413 0.0 
2.5168 1.9828 0.0 
2.51893 1.98149 0.0 
2.52108 1.98022 0.0 
2.52325 1.97897 0.0 
2.52544 1.97776 0.0 
2.52764 1.97658 0.0 
2.52986 1.97544 0.0 
2.5321 1.97433 0.0 
2.53436 1.97326 0.0 
2.53664 1.97223 0.0 
2.53893 1.97124 0.0 
2.54124 1.97029 0.0 
2.54357 1.96938 0.0 
2.54592 1.96852 0.0 
2.54828 1.9677 0.0 
2.55066 1.96693 0.0 
2.55305 1.96621 0.0 
2.55546 1.96554 0.0 
2.55788 1.96492 0.0 
2.56031 1.96435 0.0 
2.56276 1.96384 0.0 
2.56522 1.96338 0.0 
2.56768 1.96298 0.0 
2.57016 1.96265 0.0 
2.57264 1.96236 0.0 
2.57513 1.9621 0.0 
2.58259 1.96136 0.0 
8.40737 4 0.0 
2.58998 1.96065 0.0 
12 0.989291 0.0 
2.59503 1.96018 0.0 
2.60001 1.95972 0.0 
4.98794 2.23525 0.0 
2.60499 1.95928 0.0 
2.60997 1.95884 0.0 
7.9704 1.8341 0.0 
2.61495 1.95842 0.0 
2.61993 1.95801 0.0 
1.82969 2.4139 0.0 
2.62491 1.9576 0.0 
2.62989 1.95721 0.0 
6.05757 2.47597 0.0 
2.63488 1.95683 0.0 
2.63986 1.95645 0.0 
2.64485 1.95609 0.0 
4.49088 0.755642 0.0 
2.64983 1.95574 0.0 
2.6623 1.9549 0.0 
2.65482 1.95539 0.0 
2.65981 1.95506 0.0 
8.17613 1.24546 0.0 
2.05907 0.919314 0.0 
2.66729 1.95458 0.0 
11.2956 1.25205 0.0 
8.33045 1.37709 0.0 
2.67228 1.95427 0.0 
2.67727 1.95397 0.0 
3.24039 2.71551 0.0 
2.68475 1.95354 0.0 
2.23684 1.68008 0.0 
2.69217 1.95314 0.0 
11.1454 3.21 0.0 
2.69723 1.95288 0.0 
2.69973 1.95275 0.0 
3.38686 3.04014 0.0 
2.70715 1.95239 0.0 
6.67619 2.27471 0.0 
1.92027 0.865981 0.0 
2.71221 1.95215 0.0 
2.7172 1.95194 0.0 
3.00984 0.897833 0.0 
2.7222 1.95173 0.0 
4.08395 1.9528 0.0 
2.72719 1.95153 0.0 
5.8683 3.80032 0.0 
10.5184 4 0.0 
2.73219 1.95135 0.0 
2.73718 1.95118 0.0 
7.07418 1.95837 0.0 
5.483 3.20398 0.0 
2.74218 1.95102 0.0 
5.22555 1.82384 0.0 
2.74967 1.9508 0.0 
2.76007 1.95054 0.0 
2.7571 1.9506 0.0 
1.70601 1.06803 0.0 
1.27321 0 0.0 
2.76467 1.95043 0.0 
2.76966 1.95034 0.0 
6.94703 3.6552 0.0 
2.77216 1.95029 0.0 
2.77716 1.95021 0.0 
2.77966 1.95018 0.0 
2.78466 1.95012 0.0 
2.79209 1.95005 0.0 
3.7605 1.3859 0.0 
2.79715 1.95001 0.0 
5.11022 1.87216 0.0 
2.61244 1.43557 0.0 
2.80215 1.94999 0.0 
2.80715 1.94998 0.0 
2.36597 1.38281 0.0 
2.81215 1.94999 0.0 
2.81715 1.95 0.0 
12 0.742565 0.0 
6.537 2.04355 0.0 
9.01217 3.58902 0.0 
2.82215 1.95003 0.0 
2.82714 1.95006 0.0 
2.82964 1.95009 0.0 
6.69382 3.20227 0.0 
2.83707 1.95017 0.0 
2.84464 1.95029 0.0 
2.84964 1.95038 0.0 
6.49238 3.1228 0.0 
2.85463 1.95048 0.0 
5.01917 1.52083 0.0 
5.4706 2.96205 0.0 
2.86213 1.95066 0.0 
2.86713 1.95079 0.0 
9.20218 0.751745 0.0 
2.87212 1.95093 0.0 
2.87712 1.95109 0.0 
4.05803 1.86023 0.0 
2.88211 1.95125 0.0 
5.35596 3.41792 0.0 
2.88711 1.95143 0.0 
2.41588 2.51994 0.0 
2.8921 1.95162 0.0 
12 0.247737 0.0 
2.8971 1.95183 0.0 
5.32767 2.82292 0.0 
2.90417 1.95213 0.0 
2.91208 1.95248 0.0 
4.54797 2.04024 0.0 
2.92207 1.95294 0.0 
8.21521 3.88833 0.0 
2.93157 1.95339 0.0 
1.73985 0 0.0 
2.94154 1.95387 0.0 
2.95152 1.95437 0.0 
5.25734 2.73244 0.0 
2.96201 1.95491 0.0 
3.68254 0 0.0 
2.9715 1.95541 0.0 
8.39443 1.10032 0.0 
2.98147 1.95595 0.0 
0.966707 1.21788 0.0 
2.99145 1.95651 0.0 
12 1.23571 0.0 
3.00193 1.95711 0.0 
7.52081 1.95258 0.0 
3.01143 1.95767 0.0 
4.90702 3.20705 0.0 
3.02139 1.95827 0.0 
6.57176 2.37503 0.0 
3.03137 1.95889 0.0 
3.19769 0.937683 0.0 
3.04135 1.95952 0.0 
8.40383 3.78439 0.0 
3.05132 1.96016 0.0 
6.68848 2.38189 0.0 
3.0618 1.96086 0.0 
6.67764 1.24793 0.0 
3.07177 1.96153 0.0 
0.769062 1.4551 0.0 
3.08126 1.96219 0.0 
12 0.49532 0.0 
3.09172 1.96293 0.0 
3.09837 1.96341 0.0 
8.77818 2.48508 0.0 
10.1136 4 0.0 
3.11166 1.96438 0.0 
6.59925 2.00393 0.0 
3.12114 1.96509 0.0 
3.1311 1.96585 0.0 
6.86748 2.2434 0.0 
3.14156 1.96667 0.0 
2.37459 3.14124 0.0 
3.15104 1.96742 0.0 
11.6154 4 0.0 
6.43196 2.27175 0.0 
3.17146 1.96907 0.0 
12 2.76483 0.0 
3.18336 1.97004 0.0 
6.42434 2.17873 0.0 
3.20135 1.97152 0.0 
3.22072 1.97314 0.0 
10.4765 2.25344 0.0 
3.28011 0.972563 0.0 
3.23123 1.97403 0.0 
3.75 4 0.0 
3.24555 1.97525 0.0 
8.58402 0.30847 0.0 
3.26112 1.97659 0.0 
5.77845 1.60796 0.0 
4.49694 2.34339 0.0 
3.28104 1.97833 0.0 
4.50001 4 0.0 
1.857 1.93995 0.0 
3.30038 1.98003 0.0 
8.26583 1.45566 0.0 
4.25 4 0.0 
3.31787 1.9816 0.0 
4.05674 1.66554 0.0 
3.33233 1.9829 0.0 
8.37767 1.48423 0.0 
8.68938 1.7583 0.0 
3.35073 1.98458 0.0 
1.50522 0 0.0 
3.37064 1.98642 0.0 
1.04781 0 0.0 
2.38293 2.59508 0.0 
3.39055 1.98829 0.0 
8.22608 1.63221 0.0 
1.78432 2.78178 0.0 
3.41483 1.99059 0.0 
10.3091 4 0.0 
[...]
<PointData>
  <DataArray type = "Float64" Name="BLMLevelSetLayer1" format="ascii">
0.216025
0.216025
-2.98366
-8.51586
-2.98366
-8.51586
-0.920244
0.203137
-0.849836
-0.49795
0.216024
0.216026
-6.2282
-0.344336
0.216024
0.192268
0.216025
-0.946994
0.216025
-6.95207
0.216025
-0.862758
-0.0110487
-1.38645
0.216024
-1.03932
0.216025
0.216025
-0.036788
0.216026
-3.59501
-0.565936
0.216025
-7.77543
0.216025
-3.55493
-1.19685
-5.05421
0.216025
-2.18535
-4.6207
0.216025
0.216025
0.216024
0.216025
-1.54002
-0.64522
0.216025
0.216025
-1.66741
0.0934531
0.216024
-1.34151
0.216024
-2.78195
0.216025
-3.28659
0.216025
-2.10944
0.216025
-0.709287
0.216025
-6.22712
0.216025
-2.52183
0.216025
0.216024
0.216024
-4.75986
0.216024
-1.93965
0.216024
-4.99517
0.216024
0.216024
0.143185
0.216025
-6.4409
-3.21222
0.216023
-1.47809
0.216023
-4.64388
0.216023
-1.77131
0.216025
0.213026
0.216024
-6.34392
0.216024
0.216026
-5.28771
-5.8734
0.216024
-5.5746
0.216025
-2.15666
-7.20378
0.216021
0.216021
-4.64747
0.216021
-2.71569
0.216021
0.216022
-3.06516
-1.30703
0.216021
-5.78214
0.216021
-2.81872
-3.9388
0.21602
0.216025
-5.88426
-7.40351
0.216025
-0.0590523
0.216019
-1.6903
0.216025
0.216019
-1.39606
0.216025
0.216025
0.216019
-3.16782
0.216021
0.216025
-1.00552
-0.797995
0.216025
0.216021
0.216021
0.21602
-1.99513
-4.53829
0.216021
0.180332
0.216021
-5.77714
0.216021
-4.17231
0.216021
-0.703554
0.216025
0.216019
0.216021
-6.42291
0.21602
0.216021
-0.726488
0.216021
-4.8038
0.216021
-5.84968
0.21602
0.216021
-5.74749
0.216025
0.216019
0.216025
0.16375
-1.00975
0.216019
-5.16412
-3.94739
0.216025
-1.39311
0.216021
0.216022
0.216024
0.216021
-3.00708
-4.47052
0.216021
-1.07906
-2.5211
0.216021
-5.37067
0.216021
0.216021
-5.85184
0.216021
-5.17661
0.216021
-0.282064
0.21602
-5.32442
-4.42615
0.216021
0.206516
0.216025
-4.72929
0.216021
-4.5915
0.216025
-4.86682
0.216021
-5.42798
0.21602
-5.81435
0.197713
0.216021
-2.84992
0.216021
0.216025
-5.2398
-2.53068
-5.33732
0.216025
-5.77818
-1.00421
0.216014
0.216025
0.215942
0.215908
0.215937
0.216025
0.215942
0.215916
0.215944
0.216025
0.215949
0.215925
0.215951
0.216025
0.215957
0.215935
0.215958
0.216025
0.215964
0.215944
0.215965
0.216025
0.21597
0.215952
0.215971
0.216025
0.215975
0.215955
0.215979
0.216025
0.21567
0.215512
0.21559
0.216025
0.215012
0.214638
0.215012
0.216025
0.21559
0.215512
0.21567
0.216025
0.215979
0.215955
0.215975
0.216025
0.215971
0.215952
0.21597
0.216025
0.215965
0.215944
0.215964
0.216025
0.215958
0.215935
0.215957
0.216025
0.215951
0.215925
0.215949
0.216025
0.215944
0.215916
0.215942
0.216025
0.215937
0.215908
0.215942
0.216025
0.216014
0.216025
-5.08285
0.216021
-8.34373
0.216021
0.216021
-1.29023
0.216021
0.216021
-4.25742
0.216021
0.216021
-0.570481
0.216021
0.216021
-2.38527
0.216021
0.216021
0.216021
-1.37384
0.216021
0.216025
0.216021
0.216021
-4.52042
-0.940137
0.21602
-7.61528
-4.65429
0.216025
0.21602
-0.471888
0.216021
-0.194788
0.216025
-7.52435
0.21602
0.216021
-0.807802
0.21602
-2.97193
-1.04979
0.216025
0.216019
-0.842111
0.216025
-0.369748
0.216019
-2.75823
-7.08151
0.216025
0.216019
-3.35839
-2.10332
0.216025
-1.51839
0.216021
0.216022
0.216019
-1.00496
-2.12449
0.21602
0.216021
-3.60736
0.216025
0.216019
0.216021
0.21602
0.216025
-0.450076
0.216019
-1.39918
-0.305488
0.216025
0.216019
-0.396639
0.216025
0.21602
-8.37633
-2.82127
-5.52032
0.216025
0.216019
0.216021
-3.19622
0.216019
0.21602
0.216021
-2.9797
0.216021
-1.37661
-1.97641
0.216025
0.216019
-5.62096
0.216025
0.216019
-0.358989
0.216025
-2.11895
0.216019
-0.289112
0.216025
-8.4625
0.21602
-1.78793
0.216024
0.216025
-0.832675
0.216025
-4.86285
0.216025
-1.91105
0.216025
0.216025
-1.68744
0.216025
-1.79117
0.216025
-4.76022
0.216025
-1.50431
0.216025
-8.31817
0.216025
-3.80505
0.216025
-1.63712
0.216025
-2.87842
0.216025
-0.814232
0.216025
-5.002
0.216025
-2.99512
0.216025
-3.04916
0.216025
-1.59856
0.216025
-8.41595
0.216025
0.216024
-5.0843
-6.69307
0.216025
-2.88323
0.216025
0.216025
-3.16017
0.216025
-0.904965
0.216025
-8.14192
-2.72841
0.216025
-8.31822
0.216024
-2.71371
0.216025
0.216025
-6.76501
-0.786028
0.216025
-1.7985
0.216024
-5.14167
0.216025
-2.09573
-0.838057
0.216025
-2.01911
-0.430734
0.216025
-4.58067
-1.91899
0.216024
-0.432914
0.216025
-4.68873
-4.97894
0.216025
-2.00937
0.216025
-2.25112
-0.370482
0.216025
-4.52427
-0.841041
0.216024
-6.8804
0.216025
-0.478928
0.216024
-2.89467
-2.97465
0.216025
-0.921521
-1.81815
-0.00311976
-2.79226
-2.61003
-0.188679
-0.84499
0.196252
-1.84451
-1.83223
-0.396285
-2.61201
-0.745431
-1.70826
-0.753376
-2.24583
-2.02466
-2.13268
-0.832015
-4.65785
-0.931784
-4.4144
-5.50776
-0.842487
-0.494626
-7.28321
-7.69333
-3.85523
-0.415398
0.189585
-3.20149
0.194235
-6.88949
-3.21282
-0.208224
-6.39453
-2.6112
-6.64679
-1.74389
-8.00456
-1.05957
-8.31946
-3.10127
-5.39179
-2.60054
-1.73511
-1.09739
-8.28402
-8.28598
-8.27269
-1.85174
0.0862054
-1.68271
-0.837909
-1.1494
-8.34896
0.0341088
-0.728007
-7.48657
0.204254
-0.227468
-1.01689
-8.37524
-8.41513
-8.46204
-7.78762
-0.845836
-2.46539
-0.358722
-0.983185
-2.38177
-1.06052
-0.23538
-2.33392
-0.799779
-2.44482
-5.70359
-0.893163
-0.58255
0.145011
-0.473677
-0.259772
-1.9238
-0.993308
0.124462
-0.50206
-2.02033
-1.73615
-0.615058
-1.76359
-5.94487
-2.71401
-2.76568
-4.56243
-8.2989
-0.925646
-2.14006
-1.73468
-1.37956
-1.75321
-1.97448
-1.01526
-2.83404
-2.33285
-2.61003
-0.535916
-6.38647
-2.27973
-2.43831
-0.351877
-0.854361
-2.79226
-0.998722
-0.149721
-2.70207
-2.18576
-0.605645
-2.83404
-2.29736
-2.28536
-2.29736
-6.28344
-2.39402
-2.47609
-2.57818
-2.69821
-0.43301
-5.47085
-2.24465
-1.79953
-0.262349
0.193541
-7.31945
0.131074
-1.72089
-0.583352
0.171583
-0.675141
-0.405616
-4.98181
-1.80293
-5.04406
-2.99392
0.209056
-5.32243
-0.65427
-2.47072
-0.277392
-0.802738
-7.46134
-4.75425
-5.35515
-0.487201
-0.55391
-2.36295
-6.86013
-5.12493
-1.05027
-4.63775
-1.69887
-0.944704
-4.59053
-0.397021
0.180126
-2.57221
-0.680208
-3.17255
-7.68857
-1.18701
-2.83842
-0.574294
-0.254142
-1.5342
-2.60103
-1.69386
-6.22025
-2.55376
-4.99618
-3.16315
-0.908326
0.175207
-5.34325
-1.20102
-2.76804
-1.12497
-0.823541
-5.04923
-0.781555
-1.87302
-0.998636
0.188245
-0.728588
-5.09424
-5.22086
-0.330966
-5.11662
-0.0013001
-4.11155
-1.58837
-5.06345
-1.72538
-2.93215
-4.93314
-3.13873
-1.59335
-1.34675
-2.92904
-4.47955
-5.11999
-3.85723
-2.91787
-4.75179
-2.90125
-0.970907
-5.8129
-0.231415
-2.79025
-5.90009
-5.057
-4.83946
-5.82702
-1.78466
-3.02159
-4.55043
-4.85584
-3.15821
0.0803394
-5.31834
-3.45508
-3.66194
0.165314
-3.13721
0.146786
0.0899586
-2.77718
-6.58244
0.154501
-2.06192
-0.170814
-3.11927
-0.671253
-2.95416
-2.33263
-5.21881
-6.67905
-2.76228
-4.39075
-2.64681
-0.959429
-1.64471
-3.34213
-4.8648
-0.239675
0.117215
-1.4319
-0.0931655
-1.44136
-0.554857
-4.90422
-2.33312
-1.01114
-1.06634
-7.68487
-0.116663
-5.04101
-1.0607
-4.75056
-2.60246
-4.40275
-3.62474
-0.579054
-1.37494
-4.5232
-4.45456
0.148239
0.165108
-4.72258
-2.70125
-2.23759
-4.79845
-4.94348
-7.14772
-1.16597
-3.60399
0.198571
0.198337
-2.55532
-2.72366
0.132122
-2.73102
-0.187566
0.103024
-0.448058
-0.55594
-0.830628
-1.51422
-0.547327
-8.2528
-0.984785
-0.585295
-1.02963
-5.10052
-3.20163
-2.06107
-4.05355
-2.76942
-2.67771
-1.27379
-2.62939
-1.86441
-1.6899
-2.48502
0.202808
-0.924134
-0.487215
-0.307246
0.0844197
-3.12269
0.176272
-1.10957
-2.23612
-1.68764
-3.82827
-0.664137
-1.14201
-2.73666
-0.227238
-0.0754838
-0.368609
-4.86243
-0.913409
-0.884285
-1.46032
-3.67091
-1.28335
-2.8192
-0.280981
-5.33629
-0.258033
-0.887918
-8.05136
-2.17947
0.147447
-7.54043
-2.42794
-1.47521
-3.08863
-1.28205
-0.687175
0.141544
-0.176054
-0.948027
-7.47217
-0.582764
-7.9277
-1.90792
-7.75677
-8.28838
-1.99618
-0.984392
-7.96289
-1.46974
-3.4328
-7.71112
-4.25879
-8.04129
0.143317
-3.28702
-1.32872
-3.09343
-1.16298
-7.92625
-1.09549
-0.114067
0.139967
-1.21635
-6.28301
-4.38358
-0.802522
0.214061
-1.36308
-5.78795
-4.93407
-0.774655
-0.402147
-6.85433
-3.36311
-8.19302
-4.9606
-8.20972
-0.12868
-2.32227
-0.613626
-3.76833
-0.0981361
-4.25566
-2.15196
-2.96622
-3.17161
-3.03106
-1.11055
-1.39407
-0.910697
-4.84914
-5.66998
0.18937
-0.300766
-0.458279
0.175159
-1.17621
-1.53869
0.130771
-0.609078
-5.95983
0.0890369
-1.51741
-3.01975
-3.46134
-2.13802
-1.25766
-1.59605
-0.995126
-2.36132
-5.7267
-0.653959
-1.6057
-0.464192
-2.83783
-1.30759
-2.21863
-5.01511
-1.07108
-0.0138401
0.18423
-2.41976
-0.216679
-1.66206
0.201342
-6.52635
-6.00706
-4.93373
-0.616583
-4.82815
-0.181841
-0.31082
-2.13786
-0.410829
-0.0323799
0.142951
-5.14061
-0.461139
-1.54567
-2.337
-4.87124
-0.186205
-5.02953
0.179435
-2.64923
-1.33793
-4.86572
-4.93687
-1.47858
-0.688229
0.186826
-1.9143
-4.79292
-4.90809
-0.715407
-5.01317
-2.91695
0.158917
-0.940647
-0.097517
-6.20522
-3.08515
-1.36221
-3.12396
-4.82407
-1.29388
-6.47304
-1.95875
-0.212399
-5.70015
-0.132738
-0.96775
-0.156777
-0.420499
-2.55376
-2.243
-1.95248
-1.79546
-2.8573
-0.324948
0.0949416
0.15515
0.15434
-3.94087
-5.37991
-1.41163
-3.72363
-2.20942
-2.41548
-5.32146
-0.301919
-3.19758
-0.825312
-1.21885
-1.75598
-3.83525
-0.509313
-1.77778
-3.19948
-0.95145
-3.19048
-0.955575
-1.2643
-0.710032
-4.54417
-4.32406
-5.31453
-3.88339
-2.02077
-5.55492
-0.401393
-6.02173
-1.82255
-1.91538
-5.71096
-2.77646
-1.08172
-2.29667
-0.626736
-2.0388
-0.921761
-0.816992
0.0937615
-0.931864
-0.124698
-2.75139
-2.96899
-0.49319
-2.1496
0.012559
-0.272945
-2.7113
-1.96583
-2.87016
-3.06751
-2.51808
-0.61105
-1.25454
-5.9312
-0.0872105
-0.155232
-0.0997155
-2.34662
-0.833425
-1.74697
-0.589954
-0.844972
-0.799663
-2.03463
-0.163206
-0.285867
-2.61504
-2.95837
-1.6045
-0.869595
-1.13866
-0.517698
-1.40193
-1.38651
-2.37443
-2.26299
-0.733475
-6.02421
-1.86245
-2.10524
-1.43134
-2.59417
-5.5211
-2.28489
-3.15998
-5.60114
-0.932417
-0.283375
-0.243237
-1.27182
-3.86692
-0.347605
-5.76158
-4.82757
0.125694
-4.19404
-0.333854
-6.53816
-0.648227
-0.457166
-0.0655058
-4.9049
-0.656198
-0.159515
-0.511163
-6.16465
-0.375166
-1.97957
-4.30414
0.0656926
-5.90613
0.078463
-0.468017
-0.275795
-2.08011
-2.26599
0.197243
-2.21274
-2.67137
-1.10825
-0.734925
-1.65413
-6.9761
0.129035
-1.2758
-1.13302
-0.317351
-2.02264
-3.43104
-0.478552
-4.82636
-0.21272
-0.66882
-0.278595
-2.14861
-0.473382
-2.03285
-2.97132
-1.65355
-0.0299469
-1.91718
0.110834
-0.243267
-1.14915
-0.685063
-1.46018
-0.259799
0.207301
-5.1654
0.206809
-1.96658
-1.10419
0.185649
-3.67815
0.178585
-0.300925
-3.13043
-2.0393
-1.33141
0.171836
-0.321415
-6.74024
-0.360505
-2.81486
-1.06431
-0.664651
-7.12453
-0.673784
-3.43993
-5.1669
-6.10901
-5.20962
-0.687902
-0.894521
-0.636036
-6.61458
-0.307117
-0.48875
-0.496146
-2.57033
-1.97094
-0.875228
-0.533815
-0.503864
-4.88861
-6.52027
-0.905651
-0.650027
-0.189589
-0.731053
0.0660877
-0.0300827
-0.407122
-1.50463
-1.16776
-0.039227
-0.198231
-1.95083
-1.90027
-1.89244
-0.314494
-1.74797
-0.385673
-3.33669
-0.595426
-2.78836
-3.98068
-0.714308
0.188101
-0.827799
-7.63299
-0.40213
-0.903571
-6.84799
-3.43586
0.180864
-0.71414
-3.06403
-3.84338
-2.31778
-0.489695
-1.0654
-0.355066
-0.774912
-1.66743
-7.48872
0.141729
-0.545778
0.177626
-0.565999
-0.682754
-4.23345
-2.04624
-0.733998
-3.56256
-3.53863
-0.786015
-1.48534
0.166764
-0.535268
-0.776751
-3.02739
-3.87775
-3.76289
-4.89978
-5.17347
-0.519646
-3.78201
-1.04734
-0.728264
0.201091
-0.746557
-6.49098
-0.888862
-5.31731
-3.31658
-5.20433
-0.629965
-0.944885
-6.49991
-0.653109
-0.832908
-7.48792
-0.772046
-3.06505
-1.06972
-3.61081
-0.663939
-7.2798
-4.97985
-4.58355
0.0970691
0.128672
-1.34842
-3.62448
-6.62453
-7.74012
-7.35823
-0.608274
-7.3588
-0.413881
-0.583982
-2.19074
0.1838
-0.443396
-0.688963
-0.823951
-7.57965
-7.97283
-0.521338
-3.06788
0.205332
0.198272
-4.30137
0.171604
-8.18827
-7.68283
-0.26714
-2.06292
-1.73887
-0.414328
-3.84067
-3.95632
-0.969564
-7.88037
-7.50976
-0.683099
-2.0503
-0.0719673
-1.51693
-1.61107
-3.94901
-0.78697
-0.814352
-7.79318
-8.29977
-6.22218
-0.883058
-3.04345
-2.45468
0.128837
-7.20501
-4.03206
-2.83516
-0.186154
0.186718
-2.95154
-4.60378
-8.06482
-0.61573
-0.428395
-7.82191
-3.77369
-7.8755
-2.86166
-0.297916
-0.505317
-0.28493
-1.80819
-0.788557
-1.8571
0.211902
-0.892559
-4.84182
-5.60037
-4.45948
-0.484937
-0.6904
-3.95298
-5.10395
-1.11385
-0.166025
-3.73576
-7.14809
-5.74784
-6.38154
-2.28386
-3.04718
-0.644007
-7.09683
-2.18017
-2.85309
-6.26243
-6.07277
-0.177176
-3.74108
-3.34452
-8.09442
0.185281
-1.94939
-0.359664
-8.02948
0.20395
-2.14393
-3.1316
-1.46174
-0.347588
-6.99921
-1.90791
-5.01208
0.124254
-7.90171
-0.651476
-4.7977
-0.794374
-5.26378
-0.712719
-0.485541
-0.236528
-0.245279
-6.1234
-0.231346
-6.55375
-4.78126
-0.654135
-4.56373
0.134809
-1.97265
-2.59985
0.192021
-2.13507
-4.69061
-2.95511
0.17165
-1.95979
-2.21051
-3.97508
-2.83342
-2.97598
-0.959286
-4.71907
-0.349667
-2.95402
-2.42033
-0.539533
-0.706557
-2.56042
0.0118401
-3.23851
-0.302725
-3.35014
-0.320145
-1.83258
0.17226
-3.96837
-0.498397
-1.92657
-6.35812
-3.75808
-2.19362
-1.86683
-3.03773
-0.624752
-0.698017
0.0712985
-1.78136
-1.05242
-2.97833
-0.18236
-4.64504
-1.84769
-1.28049
-5.15706
-0.411684
-2.1752
0.207182
-4.59428
-0.545946
-5.06932
-5.93988
-2.91801
-0.709368
-4.89218
-4.12897
-4.02137
-2.04701
-5.31913
0.117526
-7.92689
-1.80522
-4.42512
0.132768
-4.53244
-2.05544
-2.43916
-3.94378
-6.81431
-5.87425
-2.53967
-0.262406
-4.27349
-2.80019
-0.747372
-6.22001
-2.80096
-0.913208
-0.60658
-1.60907
-4.2785
-6.70347
-0.325502
-1.27256
-6.37354
0.186887
0.076014
-0.884898
-0.786845
-1.79172
-1.45143
-1.7937
-4.30373
-8.07245
-8.01083
-8.09646
-7.60725
-6.25436
-3.99582
-2.86395
-6.04305
-6.79977
0.204688
-3.66018
-2.42977
-3.95204
-0.560219
0.163006
-1.63677
0.190378
-6.42747
-5.95959
0.209385
-2.70149
-2.45329
-1.46789
-0.539885
-0.890931
-4.08619
-1.99417
-2.35353
-2.92691
-2.36022
-0.170185
0.197506
-4.666
-0.0695498
-0.261156
-0.245355
-2.52979
-4.2784
-2.26954
-3.3259
-0.491771
-1.45676
-0.610495
-0.588989
-0.610688
-1.52614
-5.20039
-4.91782
-4.2166
-6.81323
-1.27511
-4.97225
-4.15174
-0.649701
-4.83431
-3.0898
-3.54306
-4.2446
-0.336642
-1.14688
-0.320006
-4.28201
-3.58505
-1.59346
-4.44215
-6.01643
-2.07979
-2.25651
-4.42736
-0.483813
-4.39636
-1.21622
-1.40744
-3.44498
0.209956
-1.48431
0.210775
0.14081
-4.79538
-4.38337
-1.33215
-2.82
-0.767856
-0.424373
-1.4063
0.210192
-4.83002
-4.69417
-6.13531
-6.72352
-1.01735
-1.07341
-0.363531
-0.273908
-0.45214
-1.13597
-0.961986
-0.500178
-0.576159
-0.372349
-4.53727
-6.91705
-2.61264
0.210644
-0.681249
-5.60045
-1.0405
0.213382
-2.10174
-4.47616
-4.0793
-0.490909
-0.433093
-5.09138
-1.18119
-1.15246
-3.46598
-1.0263
-0.658474
-2.17511
0.0415495
-5.26906
-5.28436
-0.151424
-5.74103
0.213946
-2.52884
-6.22158
-5.58725
-4.11349
-1.15847
-1.86972
-1.02199
0.180045
-4.67312
-7.28807
-5.69457
-0.896344
-5.77649
-3.85936
-5.70071
-1.18252
0.216027
-2.4565
-5.623
-1.09427
-4.32305
0.0174234
-4.58101
-5.47123
-0.574178
-7.54798
-2.5268
-2.8662
-2.7491
-0.46143
-1.20462
0.198625
-4.78444
-7.29507
-0.458369
-3.40852
-4.37293
-0.803267
-0.470828
-0.504893
-0.581815
-2.74913
-0.766315
0.213027
-5.45145
-1.98258
-6.90489
-5.63857
-3.49687
-0.785265
-2.69261
-7.49573
0.201179
-1.27359
-6.96642
-0.417369
-2.63991
-5.80665
-0.6821
-0.326486
-0.405339
-5.73882
-0.296907
-5.22485
-1.051
-0.928986
-5.98935
-2.60121
-1.09078
-5.29758
-3.98568
-0.597262
-0.891244
-0.49485
-3.11575
-5.70143
-0.0851122
-0.361202
-2.28032
-5.85465
0.209453
-1.16571
-6.58373
-2.70271
-6.72011
-2.34856
-5.9007
-5.95339
-6.08906
-6.10106
-0.231637
-2.45146
-2.31469
-0.46016
0.201048
-5.90779
-0.454053
-6.18026
-6.17819
-5.97108
-5.93559
-3.79878
-3.24639
0.166139
0.212542
-5.3947
0.204435
-6.43522
-6.38688
-6.51568
-6.01834
-6.2299
-6.52305
-0.706867
-6.4106
-2.6389
-6.55512
-1.19491
-6.28255
-1.63472
-5.62397
-5.12228
-2.51562
0.211384
-5.3245
-3.87416
-3.90618
-5.27103
-0.853537
-2.49773
-0.813534
-1.2166
0.214926
-3.15419
-3.24486
-6.07739
-6.45643
-0.549556
-3.34734
-1.21694
-5.42004
-8.04656
0.204664
-2.24754
-5.37473
-3.89842
-2.592
-8.10489
-3.51379
-6.3882
-8.13867
-7.64928
-3.34357
-7.93155
-2.66853
-4.67496
-2.92681
-1.20638
-4.43044
-2.51783
-2.96013
-5.15532
0.0188475
-0.833457
-1.54521
0.160552
-1.69641
-4.0646
-1.08071
0.136592
-0.818888
-0.258217
-2.82888
-0.696169
-2.41006
-2.86073
-0.648131
-2.73606
-3.27025
-1.58746
-2.46355
-2.75826
-1.14817
0.0685578
0.213223
-2.44093
-1.18644
-1.25633
-3.89294
-0.849762
-3.52486
-2.28921
-0.409168
-2.74341
-2.7196
-4.3991
-3.48859
-0.660723
0.213854
-6.49195
-0.479363
-2.04034
-0.351191
-0.884641
-2.05135
-2.92632
0.210812
-0.836978
-3.14458
-1.66237
-1.17419
0.107685
-5.22279
-0.480423
-1.27707
-0.702449
-0.96666
-5.58525
-3.68757
-0.950551
-0.827327
-0.60317
0.0483699
-0.958683
-1.87008
-3.85222
-0.689093
-0.945587
-1.44885
-0.351712
-1.14695
-6.44261
-0.975255
-4.25046
-0.742732
-7.17073
-1.5605
-1.24549
-1.96753
-2.14162
-0.361571
-1.31598
-1.22036
-2.41438
-0.78334
-5.85445
-0.986896
-2.90779
-1.29624
-0.826993
-3.26415
-0.604798
-5.41937
-0.561827
-1.77626
-6.32263
-6.39809
-0.923339
0.197103
0.204137
-2.0807
-0.745931
-1.00097
-5.42609
0.0522346
-1.06786
-1.2868
-2.52381
-1.88052
-3.60436
-1.01873
-5.42429
-2.10142
-1.2475
-0.925976
-2.52384
0.0528303
-0.84569
-0.605266
-0.591404
-0.828362
-5.33549
-2.42778
0.204617
-3.26976
-0.882631
-0.504993
-4.15237
-0.604449
-0.612807
-0.545624
-2.6842
-0.631857
-3.41517
-0.0889683
-0.670307
-2.1588
-5.40397
-0.126372
-2.22022
-0.766823
-0.58631
0.167058
-5.31417
-0.4349
0.19707
-1.09761
-2.00446
0.192619
0.19298
-1.33549
-1.73827
-4.34716
0.196578
-2.70241
-0.506931
-0.805042
-3.12656
-0.601091
-0.904588
0.209388
-1.12568
-2.66289
-2.24082
0.190423
-0.021362
-5.78842
-1.81514
-0.93868
-2.29403
-0.368513
-0.930516
0.137969
-0.811848
-0.845576
-1.70289
-0.96069
-1.07317
-0.734557
0.201465
-5.19612
-3.56044
-0.273731
-6.94602
-2.63117
-0.777656
-0.386681
0.0894611
-1.19496
-1.3801
-1.0382
-0.5264
-0.235083
-1.49702
-0.588616
-2.36024
-0.598139
-0.830347
-0.772865
-1.01424
-0.408954
-0.640651
-6.13051
-0.982607
-3.74945
-2.51358
-0.437699
-2.23244
-0.526767
-1.66207
-6.48513
-0.556733
0.201709
-2.13269
0.206401
-5.27486
0.028458
-2.60532
-1.69201
-3.50526
-1.3374
-1.13808
-2.73507
-0.97954
-0.572361
0.117129
-0.992997
-0.549689
-1.4162
-0.926556
-0.680717
-0.555381
0.16567
-0.94584
-0.703232
-2.43703
-1.83772
-7.12033
0.202439
-3.24851
-6.74513
-2.86044
-7.28374
-5.66049
-4.04419
-0.592939
-0.92911
-0.643091
-0.954964
-2.15462
-1.02975
-6.64352
-1.04166
-1.22725
-7.04947
-0.993316
-0.968084
-0.128868
0.00248986
0.0331583
-5.08699
0.215004
-2.36868
-3.9934
0.0294303
-7.44101
-3.061
-2.05412
-5.74203
0.199275
0.214498
-0.822224
-2.09016
-5.84635
0.137214
-0.444088
-1.57142
-2.20283
-2.46908
-0.789257
-0.152405
-0.695237
-0.857718
-7.29663
0.198597
0.0620897
-0.809238
-0.887986
-1.09491
-2.85703
-1.06943
-6.01103
-1.93591
-0.730729
-3.0159
0.209073
-0.640677
-3.92976
-2.52495
-2.61841
-7.05502
-1.36455
-1.403
-7.91342
-2.57586
-1.18926
-0.0505442
-7.71873
-6.99099
-0.00385883
-1.08603
-0.623689
-1.022
-0.188564
-1.30621
-1.46233
-1.05775
-0.950483
-1.26338
-3.68244
-2.48483
-1.47691
-7.83885
-1.88969
0.169593
0.0569829
0.0729771
-1.23171
0.151688
-0.639638
-1.17294
0.21514
-2.36705
0.196021
-6.40899
-1.20327
-0.000571448
-1.21624
-1.68825
-4.19866
0.0119295
-8.01724
0.00200884
0.0387931
-1.88734
-0.959254
0.148745
0.0761672
-1.03668
-0.968615
-0.305852
-1.7274
-1.51694
-0.402888
0.132787
0.205205
0.0985026
-4.3457
-1.45145
-4.36724
-1.60201
-1.58838
-1.39216
-1.82145
-0.731837
-0.567234
-1.20212
-0.034704
-1.22374
-1.26371
0.1409
-7.79864
-0.465036
0.149345
0.0897762
-2.332
-7.91114
-1.77593
0.167847
-0.461814
0.0886116
0.0936531
-0.364228
-2.52421
-0.644406
-5.74551
-1.28555
-0.391618
-2.95813
-2.50288
-0.305559
-2.40915
-4.44632
-4.45447
-4.42093
-2.78713
0.0352391
-3.86151
-6.92156
-6.21128
-4.00815
-1.1818
-0.828045
-1.36673
-5.8217
-4.02738
-2.21479
-1.38244
0.0984721
0.128985
-0.147476
-0.48519
-1.0446
-0.523207
-5.82247
-1.22019