<VTKFile type="UnstructuredGrid" version="0.1" byte_order="LittleEndian">
  <UnstructuredGrid>
    <Piece NumberOfPoints="13160" NumberOfCells="25846">
      <Points>
        <DataArray type = "Float64" NumberOfComponents="3" format="ascii">
3.5 2.00105 0.0 
3.5 1.99895 0.0 
0 0 0.0 
12 0 0.0 
0 4 0.0 
12 4 0.0 
1.9851 0.464008 0.0 
6.54577 2.37301 0.0 
5.66709 3.51054 0.0 
3.24576 2.72566 0.0 
3.46822 2.00422 0.0 
3.4492 2.00609 0.0 
9.75011 0.429191 0.0 
1.84107 1.02352 0.0 
3.4284 2.00811 0.0 
4.2924 2.85568 0.0 
3.40943 2.00992 0.0 
2.61791 1.4292 0.0 
3.39055 2.01171 0.0 
10.5646 0.785159 0.0 
3.37064 2.01358 0.0 
3.76085 1.38706 0.0 
3.94143 1.77338 0.0 
2.84569 1.9199 0.0 
3.3441 2.01602 0.0 
3.78398 1.39057 0.0 
3.32932 2.01737 0.0 
3.31416 2.01873 0.0 
9.76127 2.92391 0.0 
3.30101 2.01991 0.0 
6.4956 2.24143 0.0 
6.21511 1.68343 0.0 
3.28104 2.02167 0.0 
11.443 2.87979 0.0 
3.26112 2.02341 0.0 
7.27082 2.03327 0.0 
7.00257 2.02554 0.0 
3.96427 1.04718 0.0 
3.23123 2.02597 0.0 
4.06872 1.84749 0.0 
8.28155 1.27045 0.0 
3.21131 2.02765 0.0 
3.20135 2.02848 0.0 
3.18889 2.02951 0.0 
3.17635 2.03053 0.0 
0.759789 2.22952 0.0 
5.99789 3.79835 0.0 
3.16034 2.03183 0.0 
3.15052 2.03262 0.0 
0.628639 2.20506 0.0 
1.7727 2.80467 0.0 
3.13957 2.03349 0.0 
8.2554 3.03856 0.0 
3.1296 2.03426 0.0 
3.75 4 0.0 
3.12171 2.03487 0.0 
5.38344 1.70511 0.0 
3.11166 2.03562 0.0 
3.17947 2.98986 0.0 
3.10169 2.03635 0.0 
8.08727 1.03907 0.0 
3.0922 2.03704 0.0 
9.87757 2.91797 0.0 
3.08224 2.03774 0.0 
7.9699 1.83369 0.0 
3.07177 2.03847 0.0 
3.05986 2.03927 0.0 
3.04983 2.03993 0.0 
1.48503 1.48206 0.0 
3.03985 2.04058 0.0 
4.30691 0 0.0 
3.02987 2.04121 0.0 
8.66013 2.72876 0.0 
3.0199 2.04182 0.0 
3.00992 2.04242 0.0 
6.45915 3.1942 0.0 
3.00193 2.04289 0.0 
3.08598 1.86585 0.0 
6.92709 2.09023 0.0 
2.98711 2.04373 0.0 
4.50021 4 0.0 
2.97747 2.04427 0.0 
2.59414 2.05835 0.0 
2.96958 2.04469 0.0 
3.47062 0 0.0 
2.96201 2.04509 0.0 
4.50346 2.33024 0.0 
2.95043 2.04569 0.0 
9.9963 2.9126 0.0 
2.94005 2.0462 0.0 
2.93089 2.04665 0.0 
3.65777 3.19644 0.0 
1.8456 1.95744 0.0 
2.92007 2.04715 0.0 
9.25464 2.64568 0.0 
2.91208 2.04752 0.0 
4.90901 0.0899404 0.0 
10.8572 2.96282 0.0 
2.8996 2.04807 0.0 
2.8946 2.04828 0.0 
8.13323 0.520161 0.0 
2.88961 2.04847 0.0 
2.2985 2.41137 0.0 
2.88461 2.04866 0.0 
2.88003 2.04882 0.0 
4.25005 4 0.0 
3.59413 3.23864 0.0 
2.87462 2.04899 0.0 
6.79621 0.62344 0.0 
2.86962 2.04914 0.0 
6.52954 2.17864 0.0 
7.42982 0.938373 0.0 
2.85755 2.04945 0.0 
2.86213 2.04934 0.0 
3.70916 2.08801 0.0 
11.0785 1.20913 0.0 
2.85213 2.04957 0.0 
3.48232 3.06973 0.0 
2.84714 2.04967 0.0 
5.0013 2.24195 0.0 
2.84214 2.04975 0.0 
2.83714 2.04983 0.0 
3.28216 1.28811 0.0 
2.7008 2.0473 0.0 
2.83214 2.04989 0.0 
2.82714 2.04994 0.0 
3.54706 2.96102 0.0 
2.81965 2.04999 0.0 
2.82215 2.04997 0.0 
5.55983 1.18487 0.0 
1.4359 2.05402 0.0 
2.81215 2.05001 0.0 
2.80472 2.05001 0.0 
2.79507 2.04997 0.0 
2.79965 2.05 0.0 
2.74971 1.15802 0.0 
5.00816 1.52729 0.0 
2.78966 2.04993 0.0 
1.73834 1.53369 0.0 
2.78466 2.04988 0.0 
9.45522 2.67434 0.0 
2.77966 2.04982 0.0 
7.88728 1.90278 0.0 
2.77466 2.04975 0.0 
8.44457 0.813714 0.0 
2.77216 2.04971 0.0 
2.76716 2.04961 0.0 
2.76467 2.04956 0.0 
8.49528 2.50007 0.0 
2.75967 2.04946 0.0 
2.75467 2.04934 0.0 
6.69534 2.37564 0.0 
2.74967 2.0492 0.0 
2.99597 0.797905 0.0 
2.74468 2.04906 0.0 
9.51856 2.75585 0.0 
2.73968 2.04891 0.0 
2.73469 2.04874 0.0 
9.41426 2.76593 0.0 
2.73219 2.04865 0.0 
2.72719 2.04847 0.0 
2.72261 2.04829 0.0 
7.07481 1.96072 0.0 
12 2.76485 0.0 
2.7172 2.04806 0.0 
8.83747 2.67733 0.0 
3.68688 2.43344 0.0 
2.71221 2.04785 0.0 
6.62 2.79701 0.0 
2.70472 2.0475 0.0 
2.67763 2.04605 0.0 
2.69045 2.04677 0.0 
2.69475 2.047 0.0 
3.68248 0 0.0 
8.6137 3.08921 0.0 
2.68477 2.04646 0.0 
5.22315 1.80655 0.0 
3.09902 0.806163 0.0 
2.67479 2.04588 0.0 
9.04251 2.70224 0.0 
2.66978 2.04558 0.0 
2.6648 2.04526 0.0 
9.48102 3.02398 0.0 
2.65981 2.04494 0.0 
8.79605 3.01706 0.0 
2.65482 2.04461 0.0 
2.38028 1.40227 0.0 
2.64741 2.04409 0.0 
8.98557 2.77888 0.0 
7.99404 0.835602 0.0 
2.63986 2.04355 0.0 
8.28014 0.713082 0.0 
2.63239 2.04298 0.0 
4.48189 1.1301 0.0 
2.62498 2.0424 0.0 
8.23459 1.16471 0.0 
2.62242 2.0422 0.0 
9.02094 0.638465 0.0 
2.61495 2.04158 0.0 
9.08968 2.78231 0.0 
2.60755 2.04095 0.0 
9.42671 3.11439 0.0 
6.67586 2.27382 0.0 
2.60001 2.04028 0.0 
5.25422 2.73436 0.0 
2.58798 2.03916 0.0 
2.59254 2.03959 0.0 
6.66778 3.18237 0.0 
6.05876 3.69687 0.0 
8.97315 2.9414 0.0 
2.58259 2.03864 0.0 
9.42058 2.93769 0.0 
7.14379 3.52996 0.0 
2.57513 2.0379 0.0 
2.57264 2.03764 0.0 
2.57016 2.03735 0.0 
2.56768 2.03702 0.0 
2.56522 2.03662 0.0 
2.56276 2.03616 0.0 
2.56031 2.03565 0.0 
2.55788 2.03508 0.0 
2.55546 2.03446 0.0 
2.55305 2.03379 0.0 
2.55066 2.03307 0.0 
2.54828 2.0323 0.0 
2.54592 2.03148 0.0 
2.54357 2.03062 0.0 
2.54124 2.02971 0.0 
2.53893 2.02876 0.0 
2.53664 2.02777 0.0 
2.53436 2.02674 0.0 
2.5321 2.02567 0.0 
2.52986 2.02456 0.0 
2.52764 2.02342 0.0 
2.52544 2.02224 0.0 
2.52325 2.02103 0.0 
2.52108 2.01978 0.0 
2.51893 2.01851 0.0 
2.5168 2.0172 0.0 
2.51469 2.01587 0.0 
2.51259 2.01451 0.0 
2.51052 2.01312 0.0 
2.50845 2.0117 0.0 
2.50644 2.01022 0.0 
2.50456 2.00858 0.0 
2.50283 2.00678 0.0 
2.50139 2.00474 0.0 
2.50037 2.00246 0.0 
2.5 2 0.0 
2.50037 1.99754 0.0 
2.50139 1.99526 0.0 
2.50283 1.99322 0.0 
2.50456 1.99142 0.0 
2.50644 1.98978 0.0 
2.50845 1.9883 0.0 
2.51052 1.98688 0.0 
2.51259 1.98549 0.0 
2.51469 1.98413 0.0 
2.5168 1.9828 0.0 
2.51893 1.98149 0.0 
2.52108 1.98022 0.0 
2.52325 1.97897 0.0 
2.52544 1.97776 0.0 
2.52764 1.97658 0.0 
2.52986 1.97544 0.0 
2.5321 1.97433 0.0 
2.53436 1.97326 0.0 
2.53664 1.97223 0.0 
2.53893 1.97124 0.0 
2.54124 1.97029 0.0 
2.54357 1.96938 0.0 
2.54592 1.96852 0.0 
2.54828 1.9677 0.0 
2.55066 1.96693 0.0 
2.55305 1.96621 0.0 
2.55546 1.96554 0.0 
2.55788 1.96492 0.0 
2.56031 1.96435 0.0 
2.56276 1.96384 0.0 
2.56522 1.96338 0.0 
2.56768 1.96298 0.0 
2.57016 1.96265 0.0 
2.57264 1.96236 0.0 
2.57513 1.9621 0.0 
2.58259 1.96136 0.0 
4 4 0.0 
2.58998 1.96065 0.0 
2.48112 3.14463 0.0 
2.59503 1.96018 0.0 
2.60001 1.95972 0.0 
1.66572 1.315 0.0 
2.60499 1.95928 0.0 
2.60997 1.95884 0.0 
3.62798 1.9839 0.0 
2.61495 1.95842 0.0 
2.61993 1.95801 0.0 
1.26501 1.71839 0.0 
2.62491 1.9576 0.0 
2.62989 1.95721 0.0 
6.05757 2.47597 0.0 
2.63488 1.95683 0.0 
2.63986 1.95645 0.0 
2.64485 1.95609 0.0 
4.49088 0.755642 0.0 
2.64983 1.95574 0.0 
2.6623 1.9549 0.0 
2.65482 1.95539 0.0 
2.65981 1.95506 0.0 
8.17613 1.24546 0.0 
8.32922 1.37667 0.0 
2.66729 1.95458 0.0 
11.2956 1.25205 0.0 
5.12529 1.87094 0.0 
2.67228 1.95427 0.0 
2.67727 1.95397 0.0 
8.77818 2.48508 0.0 
2.68475 1.95354 0.0 
2.40556 2.53487 0.0 
2.69217 1.95314 0.0 
11.1454 3.21 0.0 
2.69723 1.95288 0.0 
2.69973 1.95275 0.0 
4.8962 1.06846 0.0 
2.70715 1.95239 0.0 
6.49003 3.11863 0.0 
5.50202 4 0.0 
2.71221 1.95215 0.0 
2.7172 1.95194 0.0 
2.78239 1.93833 0.0 
2.7222 1.95173 0.0 
6.42887 2.27367 0.0 
2.72719 1.95153 0.0 
5.32901 2.82744 0.0 
10.5184 4 0.0 
2.73219 1.95135 0.0 
2.73718 1.95118 0.0 
4.05926 1.64371 0.0 
4.53953 2.05056 0.0 
2.74218 1.95102 0.0 
4.761 0.384592 0.0 
2.74967 1.9508 0.0 
2.76007 1.95054 0.0 
2.7571 1.9506 0.0 
6.26644 2.54366 0.0 
1.27321 0 0.0 
2.76467 1.95043 0.0 
2.76966 1.95034 0.0 
6.6018 2.00745 0.0 
2.77216 1.95029 0.0 
2.77716 1.95021 0.0 
2.77966 1.95018 0.0 
2.78466 1.95012 0.0 
2.79209 1.95005 0.0 
2.51663 2.44619 0.0 
2.79715 1.95001 0.0 
2.01687 3.15246 0.0 
7.3989 0.820169 0.0 
2.80215 1.94999 0.0 
2.80715 1.94998 0.0 
5.90875 0.820804 0.0 
2.81215 1.94999 0.0 
2.81715 1.95 0.0 
4.65152 1.4272 0.0 
6.537 2.04355 0.0 
2.87849 1.47914 0.0 
2.82215 1.95003 0.0 
2.82714 1.95006 0.0 
2.82964 1.95009 0.0 
4.98362 0.779304 0.0 
2.83707 1.95017 0.0 
2.84464 1.95029 0.0 
2.84964 1.95038 0.0 
11.6154 4 0.0 
2.85463 1.95048 0.0 
2.97388 2.66121 0.0 
6.6895 0.594365 0.0 
2.86213 1.95066 0.0 
2.86713 1.95079 0.0 
10.2437 2.70276 0.0 
2.87212 1.95093 0.0 
2.87712 1.95109 0.0 
5.92551 2.39886 0.0 
2.88211 1.95125 0.0 
7.52041 1.95005 0.0 
2.88711 1.95143 0.0 
3.94596 1.96105 0.0 
2.8921 1.95162 0.0 
12 1.23459 0.0 
2.8971 1.95183 0.0 
2.10932 2.59524 0.0 
2.90417 1.95213 0.0 
2.91208 1.95248 0.0 
2.38972 1.91161 0.0 
2.92207 1.95294 0.0 
1.71217 1.84749 0.0 
2.93157 1.95339 0.0 
1.73985 0 0.0 
2.94154 1.95387 0.0 
2.95152 1.95437 0.0 
1.95417 1.6833 0.0 
2.96201 1.95491 0.0 
3.89314 3.21009 0.0 
2.9715 1.95541 0.0 
8.21919 1.62771 0.0 
2.98147 1.95595 0.0 
0.966707 1.21788 0.0 
2.99145 1.95651 0.0 
5.78225 1.61899 0.0 
3.00193 1.95711 0.0 
3.03274 0.591168 0.0 
3.01143 1.95767 0.0 
7.18067 3.01091 0.0 
3.02139 1.95827 0.0 
5.7924 0.103693 0.0 
3.03137 1.95889 0.0 
1.72267 1.7131 0.0 
3.04135 1.95952 0.0 
5.12624 4 0.0 
3.05132 1.96016 0.0 
6.74937 3.05174 0.0 
3.0618 1.96086 0.0 
6.67764 1.24793 0.0 
3.07177 1.96153 0.0 
0.769062 1.4551 0.0 
3.08126 1.96219 0.0 
1.9065 2.93692 0.0 
3.09172 1.96293 0.0 
3.09837 1.96341 0.0 
10.1159 4 0.0 
2.52184 4 0.0 
3.11166 1.96438 0.0 
6.44646 2.19183 0.0 
3.12114 1.96509 0.0 
3.1311 1.96585 0.0 
6.86748 2.2434 0.0 
3.14156 1.96667 0.0 
4.12972 2.10797 0.0 
3.15104 1.96742 0.0 
8.26271 1.45414 0.0 
4.93682 0.487233 0.0 
3.17146 1.96907 0.0 
1.86012 1.10308 0.0 
3.18336 1.97004 0.0 
2.37793 2.58837 0.0 
3.20135 1.97152 0.0 
3.22072 1.97314 0.0 
2.48971 1.20458 0.0 
2.41848 0.549786 0.0 
3.23123 1.97403 0.0 
3.76787 2.26695 0.0 
3.24555 1.97525 0.0 
8.58402 0.30847 0.0 
3.26112 1.97659 0.0 
5.97299 0.211 0.0 
2.72631 2.37875 0.0 
3.28104 1.97833 0.0 
5.656 0.307384 0.0 
0 3.32242 0.0 
3.30038 1.98003 0.0 
3.38899 2.03377 0.0 
8.7656 2.38481 0.0 
3.31787 1.9816 0.0 
8.37508 1.48322 0.0 
3.33233 1.9829 0.0 
8.69391 0.107498 0.0 
8.68938 1.7583 0.0 
3.35073 1.98458 0.0 
1.50522 0 0.0 
3.37064 1.98642 0.0 
1.04781 0 0.0 
3.57129 1.22343 0.0 
3.39055 1.98829 0.0 
1.96255 2.17393 0.0 
10.3114 4 0.0 
3.41483 1.99059 0.0 
6.59792 1.73349 0.0 
3.42937 1.99199 0.0 
[...]
<PointData>
  <DataArray type = "Float64" Name="BLMLevelSetLayer1" format="ascii">
0.0945108
0.0945108
-3.10518
-8.63737
-3.10518
-8.63737
-1.51112
-2.97388
-2.54648
-0.603967
0.0945105
0.0945122
-6.34972
-1.0786
0.0945105
-1.07095
0.0945111
-0.432979
0.0945108
-7.07358
0.0945108
-0.570663
-0.401213
0.0641071
0.0945104
-0.576882
0.0945108
0.0945109
-6.2344
0.0945123
-2.91072
-2.63887
0.0945108
-7.89694
0.0945108
-3.67644
-3.40814
-0.964462
0.0945108
-0.494036
-4.74222
0.0945108
0.0945108
0.0945102
0.0945114
-1.66153
-2.98278
0.094511
0.0945114
-1.78892
-0.987216
0.0945101
-4.77275
0.0945101
-1.92001
0.094511
-1.81171
0.0945108
-0.862136
0.0945108
-4.59211
0.0945109
-6.34864
0.0945109
-4.37844
0.0945108
0.0945102
0.0945101
-1.04407
0.0945101
-2.06116
0.0945101
-5.11668
0.0945101
0.0945101
-3.09612
0.0945108
-0.0019222
-3.33374
0.0945093
-2.14071
0.0945094
0.0759692
0.0945097
-1.89282
0.0945108
-0.96157
0.0945106
-6.46543
0.0945101
0.094512
-1.11125
-0.562369
0.0945101
-5.69612
0.0945108
-2.27817
-7.32529
0.0945068
0.0945071
-4.76899
0.0945069
-0.355957
0.0945069
0.0945086
-2.04053
-1.14631
0.0945069
-3.47719
0.0945069
-2.94023
-3.97591
0.0945066
0.0945108
-0.132002
-7.52502
0.0945113
-0.967451
0.0945054
-1.42599
0.0945113
0.0945054
-0.593263
0.0945113
0.0945108
0.0945055
-0.865414
0.0945069
0.0945108
-2.12036
-0.972115
0.0945113
0.0945071
0.0945076
0.0945064
-0.698048
-1.48568
0.0945069
-0.797278
0.0945069
-5.89865
0.094507
-4.29383
0.094507
-4.99013
0.0945108
0.0945055
0.0945069
-4.92563
0.0945063
0.0945069
-3.12271
0.094507
-1.06273
0.094507
-5.97119
0.0945064
0.094507
-5.869
0.0945108
0.0945055
0.0945116
-3.48051
-8.43974
0.0945056
-5.28564
-0.376538
0.0945108
-3.12542
0.0945076
0.0945084
0.0945097
0.0945076
-1.91267
-5.13368
0.0945076
-1.63935
-1.06019
0.0945076
-5.49218
0.0945071
0.0945075
-5.97336
0.0945075
-5.29812
0.0945075
-0.495306
0.0945064
-5.44593
-4.54766
0.0945069
-4.85556
0.0945108
-1.2166
0.0945075
-4.71302
0.0945108
-5.59159
0.0945074
-5.5495
0.0945062
-5.93586
-3.09304
0.0945068
-1.80681
0.094507
0.0945108
-3.28637
-2.97519
-5.45883
0.0945108
-5.8997
-3.85705
0.0945005
0.0945107
0.0944286
0.0943939
0.0944236
0.0945107
0.0944286
0.0944019
0.0944297
0.0945108
0.0944355
0.0944112
0.0944367
0.0945108
0.0944427
0.0944208
0.0944439
0.0945108
0.0944497
0.09443
0.0944511
0.0945108
0.0944558
0.0944386
0.0944572
0.0945107
0.0944614
0.0944415
0.0944648
0.0945108
0.0941565
0.0939986
0.0940765
0.0945107
0.093498
0.093124
0.093498
0.0945107
0.0940765
0.0939986
0.0941565
0.0945108
0.0944648
0.0944415
0.0944614
0.0945107
0.0944572
0.0944386
0.0944558
0.0945108
0.0944511
0.09443
0.0944497
0.0945108
0.0944439
0.0944208
0.0944427
0.0945108
0.0944367
0.0944112
0.0944355
0.0945108
0.0944297
0.0944019
0.0944286
0.0945107
0.0944236
0.0943939
0.0944286
0.0945107
0.0945005
0.0945108
-1.96602
0.0945074
-1.01612
0.0945068
0.0945073
-0.983034
0.0945068
0.0945073
-0.0343522
0.0945069
0.0945074
-1.17249
0.0945069
0.0945074
-2.50678
0.094507
0.0945074
0.0945075
-1.49535
0.0945075
0.0945116
0.094507
0.0945075
-4.64193
-4.77463
0.0945063
-7.73679
-1.53581
0.0945108
0.0945063
-5.20582
0.0945071
-0.427829
0.0945113
-7.64586
0.0945064
0.0945076
-1.58334
0.0945065
-3.09755
-2.73461
0.0945108
0.0945055
0.0826951
0.0945113
-2.84702
0.0945055
-1.91252
-7.20303
0.0945108
0.0945055
-0.56803
-0.9462
0.0945108
-1.95397
0.094507
0.0945086
0.0945057
-2.72464
-2.246
0.0945064
0.094507
-3.00729
0.0945108
0.0945055
0.094507
0.0945064
0.0945114
-0.317854
0.0945055
-1.14446
-3.97869
0.0945108
0.0945054
-2.58693
0.0945113
0.094506
-1.19114
-2.94279
-0.377273
0.0945108
0.0945055
0.0945069
-1.82608
0.0945057
0.0945063
0.0945069
-8.26346
0.0945069
-0.521412
-3.39057
0.0945108
0.0945054
-6.68563
0.0945113
0.0945054
-2.36341
0.0945113
-3.92619
0.0945054
-0.353058
0.0945113
-8.43979
0.0945058
-0.61247
0.0945099
0.0945108
-0.0450172
0.0945108
-0.708422
0.0945109
-2.03256
0.0945109
0.0945109
-0.535386
0.0945108
-1.17684
0.0945109
-4.63925
0.0945109
-1.62583
0.0945109
-2.21916
0.0945108
-1.27106
0.0945109
-3.72218
0.0945109
-2.8799
0.0945109
-0.733749
0.0945109
-2.4824
0.0945109
-3.32051
0.0945108
-3.17068
0.0945108
-1.72008
0.0945109
-1.00927
0.0945107
0.0945098
-6.81675
-1.8654
0.0945108
-2.85812
0.0945109
0.0945109
-3.28168
0.0945108
-0.544225
0.0945108
-4.69926
-1.99109
0.0945108
-1.00273
0.0945105
-0.487058
0.0945108
0.0945115
-0.667789
-1.32645
0.0945108
-0.282925
0.0945103
-5.26319
0.0945108
-2.95712
-0.235602
0.0945108
-2.64588
-2.73272
0.0945108
0.0726995
-5.18505
0.0945103
-4.80777
0.0945108
-5.43309
-5.10045
0.0945108
-2.13089
0.0945108
-2.37263
-0.684248
0.0945108
-0.470264
-7.00413
0.0945103
-3.01476
0.0945109
-0.348378
0.0945103
-1.2426
-3.23629
0.0945109
-1.94001
-0.479589
-6.1998
-2.91378
-2.73155
0.092874
-0.873799
0.0466685
-1.79386
-1.95374
-0.906693
-0.670779
-1.7482
-1.20479
-3.84732
-2.36735
-2.14617
-2.25419
-2.88763
-4.77936
0.00966966
-4.53591
-0.335757
-0.0802015
0.0707242
-7.40472
-7.81484
-3.97674
-1.4369
0.0241943
-0.930375
-2.64905
-7.01101
-3.33433
-4.78242
-0.901511
-1.24682
-6.7683
-0.970611
-8.12608
-2.95544
-8.44097
-6.02154
-1.1022
-2.45543
-1.85663
-2.1378
-8.40554
-8.4075
-8.39421
-1.97326
-2.82478
0.0572316
-1.02181
-0.964909
-8.47047
-2.90554
-0.689401
-7.60808
-1.06246
-4.50829
-0.447167
-8.49676
-8.53665
-8.58356
-7.90913
-0.61357
-5.64421
-0.399054
-1.07111
-2.50328
-1.49891
0.027017
-1.08062
-2.87846
-2.56634
-0.779015
0.0167602
-2.07135
-1.14782
-0.734607
-4.01502
-2.04531
-0.795942
-2.89149
-0.388087
-2.14185
-1.85766
-4.68451
-1.8851
-0.456868
-2.83552
-0.686356
0.0520486
-1.91958
-2.46477
-2.26158
-1.8562
-0.704643
-1.87472
-1.90332
-3.02979
-2.95555
-2.45436
-2.73155
-0.00597995
-0.552623
-2.40125
-2.55982
-3.7641
-0.765902
-2.91378
0.0796651
-3.89066
-4.83361
-2.30727
-5.16919
-2.95555
-2.41887
-2.40688
-2.41887
-6.40495
-2.51554
-2.5976
-2.6997
-2.81972
-0.514547
-5.59237
-1.09757
-1.03661
-4.75166
0.0174616
-7.44096
-5.24641
-0.962708
-2.69012
-2.58173
0.0212579
-1.07867
-4.87585
-0.308434
-0.364316
-1.83974
-0.811412
-5.44394
-1.08655
-2.4821
-2.72165
-6.21945
-7.58286
-0.971079
0.0461065
-0.520544
-0.992374
-1.3967
-6.98164
-5.11686
-0.0287687
-1.64382
-1.72796
-0.215571
-4.71204
-4.55129
-0.0124593
-0.117221
-2.68476
-3.2803
-7.81008
-0.199564
-0.740583
-3.7736
-5.39683
-0.30008
0.0761143
-1.81537
0.0405921
-5.47681
-1.98592
-3.28467
-3.0532
-0.383828
-5.46476
-0.665496
-0.785799
-1.47627
-5.17082
-0.61451
-4.23167
-1.47982
0.0328676
0.019014
-2.88555
-5.21575
-5.34237
-2.10419
-5.23813
-1.58591
-0.243738
-1.70988
-4.60665
-3.07835
-1.45202
-0.263627
-3.26024
-1.71487
-0.252788
-2.83164
0.0817212
-3.0235
-3.25757
-2.85225
-4.8733
-3.02277
-3.14194
-1.04808
0.052974
-2.6252
-1.23539
-5.17851
-4.96097
-3.5768
-1.2379
-4.67263
0.0657108
-4.97736
-6.74524
-6.80056
-0.903204
-2.80563
-0.562624
-2.71419
-2.35331
-0.573072
-0.529632
-2.8987
0.0847277
-5.6381
-0.122273
0.0619216
0.00847556
-1.25448
-0.433469
-1.808
-2.79939
-1.02215
-3.07987
-4.86641
-2.76833
-0.459462
-4.98218
-3.46365
-2.35524
-2.43096
-0.216318
-1.55341
-0.807103
-1.56287
-2.70389
-5.02573
-4.64567
-0.237493
-2.24124
-7.80638
-2.85846
-4.53292
-4.56327
-4.83849
-1.63574
-2.76007
-4.91708
0.0542042
0.0207201
-0.0951829
-5.38635
-2.96078
-0.1641
-0.667546
-0.036579
-0.736415
-0.723165
-5.06499
-7.26924
-1.03796
-1.18884
-4.50512
-0.988028
-2.55036
-0.410961
-0.298755
-1.94516
-3.15784
-2.78514
-1.17074
0.01786
-0.342729
-0.296011
-3.24562
-8.37432
-6.57939
-2.84535
-0.57451
-3.31418
-3.24667
-2.18258
-0.271042
-0.487112
0.0771958
-1.3953
-1.40617
-1.98592
-0.390142
-2.06176
-0.633987
-0.788669
-0.221717
-0.986475
-0.709693
-1.33808
-2.91451
0.0492762
-0.822467
-1.80915
-4.66139
-0.0375502
-1.26353
-1.18763
-0.770216
6.12277e-05
-0.224142
-0.318747
-0.33807
-3.14845
-2.447
-0.286825
-2.78448
0.02725
-1.04459
-4.4434
-0.860751
0.0547563
-8.17287
-0.570133
-2.54352
-7.66195
-1.39859
-1.59672
-2.27924
-0.478021
-3.89179
-3.5498
-3.39835
-2.48207
-7.59369
-0.580679
-8.04921
-6.19275
-7.87829
0.0798857
-2.1177
0.0639469
-8.08441
-1.59126
-0.141499
-7.83263
-4.3803
-8.16281
-0.565851
-0.735133
-1.45023
-3.21494
-1.28449
-8.04776
-1.9844
-5.05543
-0.39184
-6.12138
-6.40452
-3.49196
-0.940248
-3.09018
-1.48459
-1.51637
-0.657207
-2.76996
-0.205172
-6.97585
-0.539479
-8.31454
-5.08211
-8.33124
-0.820215
-2.44378
-0.460963
-0.437111
-1.7341
-4.37718
-0.317611
-0.914711
-3.29312
-0.751226
-0.760971
-1.42318
0.0495857
-0.289972
-2.97856
-1.26011
-0.885942
-6.47222
-1.1235
-1.29773
-1.66021
-3.58772
-0.0504125
-0.186255
-3.12523
-1.63892
-2.42891
-1.20511
-2.25954
-1.37917
-1.71756
0.080185
-0.0306563
-2.90221
-2.05392
-5.15102
-0.781199
-1.37254
-1.4291
-2.34386
-5.13662
-1.1926
-5.2612
-2.08944
-0.00407735
-3.20872
-1.78357
-1.394
-6.64787
-6.12858
-2.27672
-0.051043
-2.096
-0.0321861
-0.9164
-2.25938
-0.40711
-4.39933
-3.30925
-3.80558
0.0823022
-1.66718
0.0350467
-4.99275
-0.940323
-4.94447
-0.432726
-3.04286
-1.45944
-0.577469
-0.415534
-1.6001
-2.39129
-5.13403
-2.03581
-0.817093
-5.0296
-0.635017
-1.07424
-2.63661
-0.738386
-1.92009
-1.22875
-6.32674
-1.34138
-1.48373
-0.533994
-2.97871
-2.3554
-6.59455
-2.08027
-2.67817
-2.60723
-0.394352
-4.85134
0.0297927
-0.813569
-3.19188
-0.404155
-2.074
-4.81264
-2.86138
-5.16079
-2.33108
-4.00523
-2.74048
-6.19428
-3.32596
-1.53314
-0.620583
-0.5234
-2.53699
-0.161302
-0.370484
-5.70738
-0.364877
-3.9659
-1.8775
-1.0172
0.0614282
-1.89929
-2.89252
-1.07296
-6.06141
-1.86354
-1.38581
-0.746209
-1.37606
-0.867193
-5.43605
-0.16183
-2.83467
-0.482154
-4.95701
0.0092409
-1.94406
-2.03689
-5.83248
-2.99213
-2.39506
-0.753491
-0.794678
-2.16031
-0.492715
-2.22773
-0.906645
-2.34938
-2.73801
0.00830247
-1.29547
-1.04191
-0.0254672
-0.38314
-1.79297
-1.48604
-2.08735
-2.71673
-2.7214
-0.955375
-0.79791
-1.40147
-0.324188
-0.946171
-0.445817
-0.809329
-2.46814
-4.42469
-2.14989
-5.70216
-1.03922
-0.902105
-0.0667889
-2.18531
-2.10251
-5.31361
-3.39168
-0.789493
0.0841925
-2.49724
-0.449421
-1.52344
-1.50802
-2.40666
-1.1065
-0.413691
-0.306375
0.0909787
-0.909364
-1.55286
-0.776649
-0.18094
-0.778153
-3.28149
-5.72265
-1.19743
-0.0159994
-2.79382
-0.600272
-0.713459
-1.1533
-5.88309
-0.817231
-2.0889
-4.31556
-3.55391
-0.919588
-1.39758
-4.52395
-1.27665
-3.18285
0.0784559
0.0570554
-6.64306
-2.39043
-3.08986
-0.561203
-2.76924
-0.434513
-5.58094
-2.51211
-0.834068
-0.631763
-2.07669
-0.702717
-1.03959
-1.85661
-4.1146
-0.502586
-2.53169
-0.706819
-7.09761
0.0852879
-0.638332
-2.02938
-0.313613
-2.14415
-0.836202
-0.558339
-1.29729
0.0645508
-0.631082
-2.69301
-2.27012
-0.662212
-0.481255
-0.846777
-1.77506
0.058364
-1.227
-0.538222
-1.21888
-1.27066
-0.64742
-1.58169
-1.58116
-0.865278
-0.608119
0.069273
-1.01247
-0.856032
-0.3028
-5.41327
-3.13258
-5.32807
-3.25194
-2.16082
-1.45293
-0.998731
-0.887153
-6.86175
-0.659461
-3.09885
-0.482627
-0.60052
-7.24604
-2.46757
-3.56145
-5.28841
-0.800531
-5.33114
-4.91872
0.0171483
-0.372168
-6.73609
-0.800193
-3.46088
-0.98496
-4.3462
0.0872522
-0.605966
-6.28015
-2.17315
-5.01012
-0.756584
0.00597339
-0.596424
-1.38186
-4.85777
-3.09904
0.0906386
-0.952758
-1.62614
0.047266
-1.95939
-0.911655
-4.98682
-0.647167
-2.90942
-3.55398
-1.86948
-3.96717
-0.0622114
-4.10465
-0.802543
-3.44394
-3.96794
-4.70392
-2.31364
-7.75451
-0.784784
0.085128
-6.96951
-0.570145
0.00638373
-0.466747
-0.384931
-0.727177
0.0520013
0.0635158
-1.18691
-0.766212
-1.9271
-1.78895
-7.61023
-2.2
-0.64073
0.0835749
-0.877376
-1.14338
-3.6897
-2.16776
-2.98617
-0.786855
-5.39357
-3.99886
-1.60686
-1.06745
-5.06748
-0.48377
-4.57343
-0.61494
-0.543028
-5.43768
-1.16444
-0.845163
-3.90352
-1.54997
0.0636195
-4.42814
0.0318824
-6.6125
-3.86876
-3.03276
-1.63746
-0.634745
-0.760839
-0.940182
-6.62143
-0.430658
-3.73776
-7.60944
-0.648917
-1.00669
-1.19123
0.0228142
-0.71827
-7.40131
-0.60695
-0.40862
-2.03092
-3.75464
-0.660808
-0.808718
-2.176
-7.86163
-7.47974
-0.364536
-7.48031
-0.613593
-0.937012
-0.756852
-0.543813
-2.57061
-0.91295
-0.0986426
-7.70116
-8.09434
-4.6829
-1.76129
-4.72483
-1.27277
-1.31722
-3.19069
-8.30979
-7.80434
-0.799068
-3.89539
-0.667843
-0.365316
-3.70072
-1.98003
-0.701149
-8.00188
-7.63128
-0.299892
-1.25723
0.0698199
-1.63845
-0.423089
-4.56468
-2.3972
-2.31966
-7.9147
-0.278351
-6.34369
-5.56085
-0.0545944
-0.756469
-3.06503
-7.32653
-4.15357
-5.19181
-3.86392
-0.98144
-1.91342
-3.61815
-8.18633
-4.42293
-0.356747
-7.94343
-0.502664
-7.99701
0.0885706
-4.09151
-1.02256
-2.16003
-0.454559
0.0759208
-1.97988
-0.356674
-4.06534
-4.96333
-5.72188
-2.27405
-0.825883
0.0592642
-1.15954
-5.22547
-0.584127
-1.72232
-0.732781
-7.2696
-5.86936
-6.50306
-2.22699
-0.730949
-2.64434
-7.21834
-5.86425
0.0735527
0.0928509
-3.05715
-3.73443
-0.290832
-2.06215
-8.21593
-2.08545
-3.11177
-2.28489
-8.15099
-0.45862
-1.22558
-3.25312
-1.58326
-0.28371
-7.12072
-0.913055
-0.371371
-0.276092
-8.02323
-2.72839
-4.83162
-0.686764
-1.11509
-3.08586
-2.95491
-0.913471
0.0925906
-3.45761
-1.39569
-6.67527
-4.25298
-0.613857
0.0457473
-2.7205
-0.077464
0.0922005
-2.07871
-0.188482
-2.09845
-3.09788
-0.667549
-0.540512
-2.33202
-1.57154
-2.6856
-4.07692
0.0891543
0.0796258
-0.56213
-3.36205
-2.54185
-0.776851
-6.16443
-5.58008
-0.773797
0.0916058
-0.660149
-0.563107
-0.00762956
-3.87308
-0.718129
-4.08988
-3.33998
-2.31321
-6.47963
-6.18781
-4.40232
0.0839317
-4.12346
-4.72514
0.00918513
-0.907757
-2.97143
0.0382195
-2.92127
-1.0506
-4.76655
-1.96921
-3.65365
-1.78388
-4.17418
-1.70269
-1.57954
-0.460753
0.0758154
-0.462381
-2.1704
-4.14551
-2.5621
-0.639163
-2.35471
-0.751208
-1.02152
-0.646062
-1.05406
-8.0484
-4.39988
-4.54664
-2.65951
-0.768487
-1.06411
-0.864937
-0.831816
-6.93582
-2.92883
-0.577349
-0.687909
-4.39501
-1.29041
-2.30049
-6.34152
-1.14077
-0.595108
-1.1485
-1.73058
-1.33746
-6.82498
-1.90831
0.0892639
-6.49506
-0.431929
0.0889493
-3.79112
0.0574923
0.0102774
-2.83278
-3.97238
-1.0731
-8.19397
-8.13234
-8.21797
-7.72876
-6.37587
-6.24908
-1.34614
-6.16457
-6.92128
-0.920206
-1.28703
-2.55129
-2.81665
-3.01896
0.0931424
-1.75828
-1.08129
-6.54898
-1.52459
-2.48259
-4.06442
-2.57481
-3.50884
0.085957
-2.24077
-4.2077
-2.63671
0.0137781
-3.04843
-2.48174
-3.91727
-6.15669
-4.78752
-5.03836
-1.14029
-3.44538
-1.55004
0.0902571
-4.36805
-3.20469
-5.87452
-4.20016
-4.44478
0.0793475
-0.568315
-0.105063
-4.81466
-5.20303
-4.33811
-6.93474
-4.27862
-5.09376
-1.07484
-4.95156
-0.0862845
-2.24462
-0.52412
0.0391271
-1.83523
-1.34095
0.0826905
-2.21031
-0.596825
-3.53388
-3.56735
-6.13794
-1.07187
-2.37802
-0.697201
-3.81691
-4.51787
-0.486191
-1.52895
-0.39553
-1.13653
-1.60583
-5.50186
-2.97231
-0.953877
-4.50488
-0.644109
-2.94151
-2.79829
-0.791665
-1.16826
-0.589204
-0.931502
-1.1183
-6.25683
-6.84504
-2.56059
-0.478402
-0.674313
-1.107
-0.371451
-1.19796
-0.349218
-3.43864
-3.31649
-5.82533
-4.65879
-7.03856
-1.29144
-5.42698
-0.0574846
-5.72196
-1.15842
-2.4158
0.088205
-4.59768
-4.01867
-4.89633
-1.21492
-1.69275
-0.523841
-3.57825
-2.64544
-0.105597
-2.86882
-3.60256
-0.969116
-2.57389
-0.426414
-0.212963
-0.586885
-2.98801
-1.33205
-6.3431
-5.70876
-0.40174
-1.27999
-0.0695102
-0.994467
-3.41917
-4.79463
-7.40959
-5.81608
-1.32369
-5.89801
-2.72399
-5.82223
-1.30403
0.0945134
-3.99222
-5.74451
-1.21579
-2.52478
0.0826037
-4.70253
-4.79432
-0.247592
-7.66949
-4.62732
-0.807527
-2.56188
-1.45967
-2.8489
0.0931939
-5.28054
-7.41658
-0.712018
-1.15131
-4.49444
-0.969284
-0.478028
-0.530729
-1.78459
-1.05852
-2.76099
-1.4466
-0.721487
-4.18605
-7.0264
-1.01225
-1.04428
-0.712687
-1.05121
-7.61724
-0.527655
-0.493737
-7.08793
-5.89736
-3.62277
-5.92816
0.0879482
-0.974189
-0.619954
-5.86033
-6.19898
-5.34636
0.0505577
-1.21977
-6.11086
-0.654283
-0.61142
-5.4191
-4.1072
-2.39152
-0.733565
-0.725804
0.0939386
-5.82295
-3.45813
-0.474971
-2.63795
-5.97617
-0.876509
-2.57577
-6.70524
0.0930627
-6.84162
-5.51502
-6.02221
-6.07491
-6.21058
-6.22257
-1.05626
-1.12659
-2.4362
-0.82104
0.0392697
-6.02931
-5.67188
-6.30178
-6.29971
-6.09259
-6.0571
-3.37986
-2.00781
-1.6851
-1.25446
-4.02632
-0.86242
-6.55673
-6.50839
-6.63719
-6.13985
-6.35141
-6.64457
-1.29884
-6.53212
-5.64735
-6.67664
-1.09792
-6.40406
-3.3684
-5.74548
-5.2438
-2.63713
-0.209383
-5.44602
-0.60019
-4.89961
-5.39254
-2.62697
-1.05873
-3.47413
-1.33403
-0.0747694
-3.27571
-1.20532
-0.541633
-6.57795
-1.10085
-2.32891
-3.03361
-5.54156
-8.16808
-3.63233
-2.36906
-5.49624
-1.21966
-2.71352
-8.2264
-6.1065
-6.50971
-8.26019
-7.77079
-0.0332658
-8.05306
-2.79005
-2.95183
-0.0213518
-2.85551
-4.55196
-0.469048
-3.08165
-1.06165
-0.614442
-2.99765
-1.66672
-0.953667
-1.81792
-2.447
-1.08834
-3.02612
-2.01334
0.0793253
-5.97598
-2.40923
-2.53157
-3.53601
-3.3929
-0.913642
-1.41856
-0.663748
0.0835342
-1.27968
-3.30254
-1.60963
-1.03191
0.0710062
-2.16367
-4.92107
-1.36883
-0.00845051
-3.64637
-1.36178
-2.87966
-0.594787
-0.727061
-1.34071
-0.0330195
-0.532163
-3.01389
-6.61346
-1.14652
-0.722309
-0.969316
-2.75281
-0.0615643
-6.3057
-4.27384
-3.24962
-3.2661
0.00929231
-0.881463
-1.07303
-5.3443
0.0705877
-1.05972
-0.365634
-5.71706
-5.19341
-1.49294
-0.930022
-2.20944
-2.28836
-0.831477
-1.79839
0.0742406
-3.97373
-1.04049
-1.40435
-0.0982809
-2.35291
-0.871476
-6.56412
-3.02289
-4.37197
-3.95236
-7.29224
-0.900545
-0.564615
-2.08904
-2.5201
-4.29151
-0.133152
0.06522
-0.772178
-4.15046
-1.11602
0.078688
-3.38078
-0.558308
-2.20762
-1.90706
-1.8986
-0.080886
-1.51798
-0.723391
-6.44415
-6.5196
-4.88754
0.0785355
-4.64248
-0.868342
-3.72835
-3.52108
-5.5476
-0.745547
-0.0407264
-1.98862
-3.31318
-3.07956
-0.253029
0.0817079
-5.54581
0.0742821
-0.774861
-0.960838
0.00202435
-0.720794
0.0930286
0.0846479
-2.82459
-0.0974633
-5.457
-0.932679
-0.910987
-1.29759
-0.737845
-0.150396
-1.19478
-1.815
-2.11225
-3.21159
-1.92982
-1.09364
-1.21349
-0.958284
-2.02106
-0.735773
-4.4699
-0.857106
-5.65116
-0.860355
-0.991734
-1.06902
-5.43568
0.0210631
-0.909272
0.0819744
-0.903146
-2.73393
0.0241336
-4.16543
-1.85978
-0.275996
-0.0182894
-4.06362
-2.26588
-2.56248
-0.78959
-0.0293396
-1.29259
-1.54421
-1.24719
-1.4666
-2.36233
-0.0567025
-0.163206
-5.90993
-0.255215
-0.521583
-4.85655
-0.829269
-0.677702
-0.0878473
-5.96781
-0.486495
-1.8244
-0.0964854
-0.758962
-3.66848
-0.944442
-5.31764
-2.48569
-0.580679
-7.06754
-1.11056
0.0282863
-3.637
-0.696517
-0.77135
-0.6822
-0.10724
-1.51857
-1.07034
-5.8788
0.00887083
-0.967034
-0.0922127
-4.84289
-1.11277
-0.0405598
-5.94316
-2.02801
0.0726612
-0.119073
-1.61246
-2.63509
-1.19307
-2.84987
-3.37298
-1.4735
-6.60664
-0.0559011
0.0731022
0.088479
-1.49657
-0.424439
-1.28528
-4.32004
-1.26004
0.0745838
-0.0354359
-0.664147
-0.858423
-0.336009
-2.53786
0.0455826
-0.796587
-0.878
-0.110773
-0.820666
-1.88462
-0.660804
-0.851023
-0.368873
-0.125874
-0.294729
-5.86669
-7.24184
-2.57671
-4.95211
-6.86664
-0.33532
-7.40525
-5.78201
-1.34966
-0.543959
0.023169
-1.3086
-3.19904
-3.12588
-0.939102
-6.76504
-1.16317
-0.0771793
-7.17098
-3.73211
-0.316207
-0.76973
-0.941955
-0.82317
-5.2085
-0.577182
-1.08745
-0.767875
-0.702095
-7.56253
-2.63581
-2.17563
-5.86355
-0.506994
-0.114935
-1.13279
-2.21167
-0.832435
-1.81252
-0.438074
-3.41639
-2.32435
-6.2607
-0.277311
-3.80493
-0.302217
-1.16037
-7.41814
-2.7068
-0.277211
-3.52802
-3.62033
-1.21643
-1.34957
-1.4075
-0.374282
-2.05743
-0.123845
-4.05045
-0.378587
-3.62713
-5.09035
-1.03307
-1.52449
-7.17654
-1.48606
-2.62432
-8.03493
-2.00755
-1.04121
-1.85826
-7.84024
-7.11251
-0.0336458
-1.20754
-3.29138
-1.14352
0.0848884
-1.42772
-1.58385
-6.61222
-3.80405
-1.38489
-3.00135
-0.738757
-1.59843
-7.96036
-0.282809
0.0939287
-0.954196
0.0182989
-0.955215
-0.0943491
-0.585583
-1.28465
-2.48211
-3.61695
-0.923153
-6.5305
-1.32479
0.0451279
-1.33776
-1.80977
-1.63859
0.043325
-8.13876
0.0311901
-0.697359
-4.35755
-4.1504
-5.09481
-1.15837
-0.988053
-2.13056
-0.0268466
-3.51298
-0.354036
-6.48589
-0.618384
-6.026
-2.44591
-4.46721
-1.57296
-4.48875
-1.72353
-1.70989
-0.467239
-1.94296
-0.0244739
-2.93907
-1.32364
-1.1675
-1.34526
-1.38522
-0.0109195
-7.92015
-4.46429
-1.22113