<VTKFile type="UnstructuredGrid" version="0.1" byte_order="LittleEndian">
  <UnstructuredGrid>
    <Piece NumberOfPoints="8295" NumberOfCells="16118">
      <Points>
        <DataArray type = "Float64" NumberOfComponents="3" format="ascii">
3.5 2.00105 0.0 
3.5 1.99895 0.0 
0 0 0.0 
12 0 0.0 
0 4 0.0 
12 4 0.0 
1.84154 2.93167 0.0 
3.25494 2.03688 0.0 
1.9909 2.5966 0.0 
2.3504 1.2816 0.0 
3.46822 2.00422 0.0 
3.4492 2.00609 0.0 
9.75011 0.429191 0.0 
4.04015 2.1502 0.0 
3.4284 2.00811 0.0 
8.89457 0.422399 0.0 
3.40943 2.00992 0.0 
4.29545 2.8495 0.0 
3.39055 2.01171 0.0 
10.5646 0.785159 0.0 
3.37064 2.01358 0.0 
5.54748 0.897794 0.0 
3.37374 2.27123 0.0 
1.98766 0.466428 0.0 
3.3441 2.01602 0.0 
6.18966 0.433005 0.0 
3.32932 2.01737 0.0 
3.31416 2.01873 0.0 
1.70615 1.07055 0.0 
3.30101 2.01991 0.0 
7.21287 1.13955 0.0 
5.05599 2.06888 0.0 
3.28104 2.02167 0.0 
11.443 2.87979 0.0 
3.26112 2.02341 0.0 
7.27082 2.03327 0.0 
4.89223 2.24166 0.0 
7.26882 4 0.0 
3.23123 2.02597 0.0 
4.79213 2.96058 0.0 
8.28155 1.27045 0.0 
3.21131 2.02765 0.0 
3.20135 2.02848 0.0 
3.18889 2.02951 0.0 
3.17635 2.03053 0.0 
0.759789 2.22952 0.0 
1.92819 1.35187 0.0 
3.16034 2.03183 0.0 
3.15052 2.03262 0.0 
0.628639 2.20506 0.0 
2.48462 2.13876 0.0 
3.13957 2.03349 0.0 
7.00262 2.02534 0.0 
3.1296 2.03426 0.0 
6.48933 2.22857 0.0 
3.12171 2.03487 0.0 
5.54226 3.52093 0.0 
3.11166 2.03562 0.0 
2.0576 0.919737 0.0 
3.10169 2.03635 0.0 
2.24094 1.09496 0.0 
3.0922 2.03704 0.0 
9.87757 2.91797 0.0 
3.08224 2.03774 0.0 
6.05081 2.99563 0.0 
3.07177 2.03847 0.0 
3.05986 2.03927 0.0 
3.04983 2.03993 0.0 
7.08858 0.630154 0.0 
3.03985 2.04058 0.0 
4.30691 0 0.0 
3.02987 2.04121 0.0 
8.66013 2.72876 0.0 
3.0199 2.04182 0.0 
3.00992 2.04242 0.0 
3.11948 1.89192 0.0 
3.00193 2.04289 0.0 
6.57337 0.582815 0.0 
6.92709 2.09023 0.0 
2.98711 2.04373 0.0 
3.26924 1.94201 0.0 
2.97747 2.04427 0.0 
8.24797 3.03812 0.0 
2.96958 2.04469 0.0 
3.47062 0 0.0 
2.96201 2.04509 0.0 
4.3067 2.91609 0.0 
2.95043 2.04569 0.0 
9.9963 2.9126 0.0 
2.94005 2.0462 0.0 
2.93089 2.04665 0.0 
5.38356 1.70554 0.0 
5.10951 2.0705 0.0 
2.92007 2.04715 0.0 
9.25464 2.64568 0.0 
2.91208 2.04752 0.0 
4.90901 0.0899404 0.0 
10.8572 2.96282 0.0 
2.8996 2.04807 0.0 
2.8946 2.04828 0.0 
8.13323 0.520161 0.0 
2.88961 2.04847 0.0 
2.61649 0.943385 0.0 
2.88461 2.04866 0.0 
2.88003 2.04882 0.0 
9.01958 0.856953 0.0 
5.02233 1.95199 0.0 
2.87462 2.04899 0.0 
8.13877 0.9569 0.0 
2.86962 2.04914 0.0 
6.52954 2.17864 0.0 
7.53674 2.98455 0.0 
2.85755 2.04945 0.0 
2.86213 2.04934 0.0 
1.82846 2.40865 0.0 
11.0785 1.20913 0.0 
2.85213 2.04957 0.0 
3.57408 2.26596 0.0 
2.84714 2.04967 0.0 
8.08727 1.03907 0.0 
2.84214 2.04975 0.0 
2.83714 2.04983 0.0 
2.90796 2.1003 0.0 
2.7008 2.0473 0.0 
2.83214 2.04989 0.0 
2.82714 2.04994 0.0 
3.66351 2.90587 0.0 
2.81965 2.04999 0.0 
2.82215 2.04997 0.0 
3.45414 2.95118 0.0 
6.22667 2.35768 0.0 
2.81215 2.05001 0.0 
2.80472 2.05001 0.0 
2.79507 2.04997 0.0 
2.79965 2.05 0.0 
5.55584 1.18487 0.0 
7.77492 4 0.0 
2.78966 2.04993 0.0 
2.83041 1.93165 0.0 
2.78466 2.04988 0.0 
9.45522 2.67434 0.0 
2.77966 2.04982 0.0 
7.88728 1.90278 0.0 
2.77466 2.04975 0.0 
6.24592 3.59294 0.0 
2.77216 2.04971 0.0 
2.76716 2.04961 0.0 
2.76467 2.04956 0.0 
8.49528 2.50007 0.0 
2.75967 2.04946 0.0 
2.75467 2.04934 0.0 
2.23918 1.67441 0.0 
2.74967 2.0492 0.0 
6.21834 1.68371 0.0 
2.74468 2.04906 0.0 
9.51856 2.75585 0.0 
2.73968 2.04891 0.0 
2.73469 2.04874 0.0 
9.41426 2.76593 0.0 
2.73219 2.04865 0.0 
2.72719 2.04847 0.0 
2.72261 2.04829 0.0 
6.34561 0.857915 0.0 
4.36168 2.87285 0.0 
2.7172 2.04806 0.0 
8.83747 2.67733 0.0 
1.91876 0.867521 0.0 
2.71221 2.04785 0.0 
3.38059 3.04212 0.0 
2.70472 2.0475 0.0 
2.67763 2.04605 0.0 
2.69045 2.04677 0.0 
2.69475 2.047 0.0 
6.62286 2.79864 0.0 
2.7127 2.05704 0.0 
2.68477 2.04646 0.0 
4.79305 1.92641 0.0 
3.94249 1.77133 0.0 
2.67479 2.04588 0.0 
9.04251 2.70224 0.0 
2.66978 2.04558 0.0 
2.6648 2.04526 0.0 
9.48102 3.02398 0.0 
2.65981 2.04494 0.0 
8.79605 3.01706 0.0 
2.65482 2.04461 0.0 
12 0.988958 0.0 
2.64741 2.04409 0.0 
8.98557 2.77888 0.0 
7.99404 0.835602 0.0 
2.63986 2.04355 0.0 
9.93057 2.27198 0.0 
2.63239 2.04298 0.0 
8.27174 0.700244 0.0 
2.62498 2.0424 0.0 
8.23459 1.16471 0.0 
2.62242 2.0422 0.0 
8.44244 0.812526 0.0 
2.61495 2.04158 0.0 
9.08968 2.78231 0.0 
2.60755 2.04095 0.0 
9.42671 3.11439 0.0 
3.01068 0.896179 0.0 
2.60001 2.04028 0.0 
6.67584 2.2739 0.0 
2.58798 2.03916 0.0 
2.59254 2.03959 0.0 
5.4832 3.20353 0.0 
4.09062 1.95419 0.0 
8.97315 2.9414 0.0 
2.58259 2.03864 0.0 
9.42058 2.93769 0.0 
4.49796 2.70322 0.0 
2.57513 2.0379 0.0 
2.57264 2.03764 0.0 
2.57016 2.03735 0.0 
2.56768 2.03702 0.0 
2.56522 2.03662 0.0 
2.56276 2.03616 0.0 
2.56031 2.03565 0.0 
2.55788 2.03508 0.0 
2.55546 2.03446 0.0 
2.55305 2.03379 0.0 
2.55066 2.03307 0.0 
2.54828 2.0323 0.0 
2.54592 2.03148 0.0 
2.54357 2.03062 0.0 
2.54124 2.02971 0.0 
2.53893 2.02876 0.0 
2.53664 2.02777 0.0 
2.53436 2.02674 0.0 
2.5321 2.02567 0.0 
2.52986 2.02456 0.0 
2.52764 2.02342 0.0 
2.52544 2.02224 0.0 
2.52325 2.02103 0.0 
2.52108 2.01978 0.0 
2.51893 2.01851 0.0 
2.5168 2.0172 0.0 
2.51469 2.01587 0.0 
2.51259 2.01451 0.0 
2.51052 2.01312 0.0 
2.50845 2.0117 0.0 
2.50644 2.01022 0.0 
2.50456 2.00858 0.0 
2.50283 2.00678 0.0 
2.50139 2.00474 0.0 
2.50037 2.00246 0.0 
2.5 2 0.0 
2.50037 1.99754 0.0 
2.50139 1.99526 0.0 
2.50283 1.99322 0.0 
2.50456 1.99142 0.0 
2.50644 1.98978 0.0 
2.50845 1.9883 0.0 
2.51052 1.98688 0.0 
2.51259 1.98549 0.0 
2.51469 1.98413 0.0 
2.5168 1.9828 0.0 
2.51893 1.98149 0.0 
2.52108 1.98022 0.0 
2.52325 1.97897 0.0 
2.52544 1.97776 0.0 
2.52764 1.97658 0.0 
2.52986 1.97544 0.0 
2.5321 1.97433 0.0 
2.53436 1.97326 0.0 
2.53664 1.97223 0.0 
2.53893 1.97124 0.0 
2.54124 1.97029 0.0 
2.54357 1.96938 0.0 
2.54592 1.96852 0.0 
2.54828 1.9677 0.0 
2.55066 1.96693 0.0 
2.55305 1.96621 0.0 
2.55546 1.96554 0.0 
2.55788 1.96492 0.0 
2.56031 1.96435 0.0 
2.56276 1.96384 0.0 
2.56522 1.96338 0.0 
2.56768 1.96298 0.0 
2.57016 1.96265 0.0 
2.57264 1.96236 0.0 
2.57513 1.9621 0.0 
2.58259 1.96136 0.0 
1.73563 1.15442 0.0 
2.58998 1.96065 0.0 
5.356 3.41788 0.0 
2.59503 1.96018 0.0 
2.60001 1.95972 0.0 
4.98794 2.23525 0.0 
2.60499 1.95928 0.0 
2.60997 1.95884 0.0 
7.9704 1.8341 0.0 
2.61495 1.95842 0.0 
2.61993 1.95801 0.0 
2.3656 3.13886 0.0 
2.62491 1.9576 0.0 
2.62989 1.95721 0.0 
6.05757 2.47597 0.0 
2.63488 1.95683 0.0 
2.63986 1.95645 0.0 
2.64485 1.95609 0.0 
4.49088 0.755642 0.0 
2.64983 1.95574 0.0 
2.6623 1.9549 0.0 
2.65482 1.95539 0.0 
2.65981 1.95506 0.0 
8.17613 1.24546 0.0 
6.67689 2.38306 0.0 
2.66729 1.95458 0.0 
11.2956 1.25205 0.0 
8.33045 1.37709 0.0 
2.67228 1.95427 0.0 
2.67727 1.95397 0.0 
3.24039 2.71551 0.0 
2.68475 1.95354 0.0 
9.62993 1.38202 0.0 
2.69217 1.95314 0.0 
11.1454 3.21 0.0 
2.69723 1.95288 0.0 
2.69973 1.95275 0.0 
3.09096 1.86941 0.0 
2.70715 1.95239 0.0 
5.47387 2.9653 0.0 
5.22691 1.8236 0.0 
2.71221 1.95215 0.0 
2.7172 1.95194 0.0 
6.5211 0 0.0 
2.7222 1.95173 0.0 
6.56426 2.37578 0.0 
2.72719 1.95153 0.0 
9.20274 0.751395 0.0 
10.5184 4 0.0 
2.73219 1.95135 0.0 
2.73718 1.95118 0.0 
7.07418 1.95837 0.0 
12 0.742223 0.0 
2.74218 1.95102 0.0 
2.36828 1.38884 0.0 
2.74967 1.9508 0.0 
2.76007 1.95054 0.0 
2.7571 1.9506 0.0 
4.90714 3.2062 0.0 
1.27321 0 0.0 
2.76467 1.95043 0.0 
2.76966 1.95034 0.0 
12 0.247586 0.0 
2.77216 1.95029 0.0 
2.77716 1.95021 0.0 
2.77966 1.95018 0.0 
2.78466 1.95012 0.0 
2.79209 1.95005 0.0 
3.7605 1.3859 0.0 
2.79715 1.95001 0.0 
5.11022 1.87216 0.0 
2.61244 1.43557 0.0 
2.80215 1.94999 0.0 
2.80715 1.94998 0.0 
12 1.72532 0.0 
2.81215 1.94999 0.0 
2.81715 1.95 0.0 
6.49226 3.12279 0.0 
6.537 2.04355 0.0 
3.28007 0.972574 0.0 
2.82215 1.95003 0.0 
2.82714 1.95006 0.0 
2.82964 1.95009 0.0 
6.69382 3.20227 0.0 
2.83707 1.95017 0.0 
2.84464 1.95029 0.0 
2.84964 1.95038 0.0 
1.8569 1.94018 0.0 
2.85463 1.95048 0.0 
5.01917 1.52083 0.0 
2.50437 3.10519 0.0 
2.86213 1.95066 0.0 
2.86713 1.95079 0.0 
8.77818 2.48508 0.0 
2.87212 1.95093 0.0 
2.87712 1.95109 0.0 
4.05803 1.86023 0.0 
2.88211 1.95125 0.0 
10.289 2.36053 0.0 
2.88711 1.95143 0.0 
2.41588 2.51994 0.0 
2.8921 1.95162 0.0 
3.6825 0 0.0 
2.8971 1.95183 0.0 
5.32767 2.82292 0.0 
2.90417 1.95213 0.0 
2.91208 1.95248 0.0 
4.54797 2.04024 0.0 
2.92207 1.95294 0.0 
6.60092 2.003 0.0 
2.93157 1.95339 0.0 
1.73985 0 0.0 
2.94154 1.95387 0.0 
2.95152 1.95437 0.0 
5.25734 2.73244 0.0 
2.96201 1.95491 0.0 
12 0.495045 0.0 
2.9715 1.95541 0.0 
12 1.23544 0.0 
2.98147 1.95595 0.0 
0.966707 1.21788 0.0 
2.99145 1.95651 0.0 
1.66334 2.78951 0.0 
3.00193 1.95711 0.0 
7.52081 1.95258 0.0 
3.01143 1.95767 0.0 
1.98873 0.894183 0.0 
3.02139 1.95827 0.0 
6.46411 3.18268 0.0 
3.03137 1.95889 0.0 
3.19769 0.937683 0.0 
3.04135 1.95952 0.0 
5.04962 3.14197 0.0 
3.05132 1.96016 0.0 
4.50205 2.33668 0.0 
3.0618 1.96086 0.0 
6.67764 1.24793 0.0 
3.07177 1.96153 0.0 
0.769062 1.4551 0.0 
3.08126 1.96219 0.0 
1.77928 3.10658 0.0 
3.09172 1.96293 0.0 
3.09837 1.96341 0.0 
10.1159 4 0.0 
12 2.76484 0.0 
3.11166 1.96438 0.0 
11.6154 4 0.0 
3.12114 1.96509 0.0 
3.1311 1.96585 0.0 
6.86748 2.2434 0.0 
3.14156 1.96667 0.0 
3.75 4 0.0 
3.15104 1.96742 0.0 
4.50002 4 0.0 
6.43196 2.27175 0.0 
3.17146 1.96907 0.0 
1.68042 2.47442 0.0 
3.18336 1.97004 0.0 
6.42434 2.17873 0.0 
3.20135 1.97152 0.0 
3.22072 1.97314 0.0 
4.25 4 0.0 
4.81541 3.49724 0.0 
3.23123 1.97403 0.0 
1.82177 2.99675 0.0 
3.24555 1.97525 0.0 
8.58402 0.30847 0.0 
3.26112 1.97659 0.0 
5.77845 1.60796 0.0 
2.5883 2.05781 0.0 
3.28104 1.97833 0.0 
4.05906 1.6637 0.0 
1.78411 2.78786 0.0 
3.30038 1.98003 0.0 
8.26583 1.45566 0.0 
2.51607 2.43956 0.0 
3.31787 1.9816 0.0 
3.7007 2.08702 0.0 
3.33233 1.9829 0.0 
8.37767 1.48423 0.0 
8.68938 1.7583 0.0 
3.35073 1.98458 0.0 
1.50522 0 0.0 
3.37064 1.98642 0.0 
1.04781 0 0.0 
2.38293 2.59508 0.0 
3.39055 1.98829 0.0 
8.22608 1.63221 0.0 
10.3114 4 0.0 
3.41483 1.99059 0.0 
6.26364 2.54419 0.0 
3.42937 1.99199 0.0 
[...]
<PointData>
  <DataArray type = "Float64" Name="BLMLevelSetLayer1" format="ascii">
0.202523
0.202523
-2.99716
-8.52936
-2.99716
-8.52936
-0.933746
0.189635
-0.57848
-0.511451
0.202523
0.202524
-6.2417
-0.357838
0.202523
-5.4177
0.202523
-0.960495
0.202523
-6.96557
0.202523
-2.12228
-0.054325
-1.39995
0.202523
-2.90979
0.202523
0.202523
-1.01647
0.202525
-3.60851
-1.35494
0.202523
-7.78893
0.202523
-3.56843
-1.21035
-4.0636
0.202523
-1.40692
-4.63421
0.202523
0.202523
0.202522
0.202524
-1.55352
-0.658722
0.202523
0.202524
-1.68091
0.0799516
0.202522
-3.30018
0.202522
-2.79546
0.202523
-2.34323
0.202523
-0.953857
0.202523
-0.722789
0.202523
-6.24062
0.202523
-2.53533
0.202523
0.202522
0.202522
-3.63824
0.202522
-1.95315
0.202522
-5.00867
0.202522
0.202522
0.129684
0.202523
-3.18141
-3.22573
0.202522
0.167373
0.202522
-4.65738
0.202522
-1.78481
0.202523
-1.01734
0.202523
-6.35742
0.202522
0.202524
-1.70375
-1.40848
0.202522
-5.58811
0.202523
-2.17016
-7.21728
0.202519
0.202519
-4.66097
0.202519
-0.809893
0.202519
0.202521
-5.43396
-1.32053
0.202519
-4.55185
0.202519
-2.83222
-3.9523
0.202519
0.202523
-0.582313
-7.41701
0.202524
-0.0725538
0.202518
-4.4841
0.202524
0.202518
0.149972
0.202524
0.202523
0.202518
-0.716949
0.202519
0.202523
-0.738784
-2.54737
0.202524
0.202519
0.20252
0.202519
-2.00864
-4.51666
0.202519
0.184077
0.202519
-5.79064
0.202519
-4.18582
0.202519
-2.97146
0.202523
0.202518
0.202519
-4.81762
0.202519
0.202519
-0.211038
0.202519
-2.53403
0.202519
-5.86318
0.202519
0.202519
-5.76099
0.202523
0.202518
0.202524
-2.86333
-1.02326
0.202518
-5.17762
-1.06266
0.202523
-0.822718
0.20252
0.202521
0.202522
0.20252
-3.02058
0.193354
0.20252
-1.09256
-0.295076
0.20252
-5.38417
0.202519
0.20252
-5.86535
0.20252
-5.19011
0.20252
-8.35727
0.202519
-5.33792
-4.43965
0.202519
-6.23375
0.202523
-4.74279
0.20252
-4.605
0.202523
-4.88032
0.20252
-5.44149
0.202519
-5.82785
-0.857307
0.202519
-2.98501
0.202519
0.202523
-2.11675
-0.389793
-5.35082
0.202523
-5.79169
-1.01771
0.202513
0.202523
0.202441
0.202406
0.202436
0.202523
0.202441
0.202414
0.202442
0.202523
0.202448
0.202423
0.202449
0.202523
0.202455
0.202433
0.202456
0.202523
0.202462
0.202442
0.202463
0.202523
0.202468
0.202451
0.20247
0.202523
0.202474
0.202454
0.202477
0.202523
0.202169
0.202011
0.202089
0.202523
0.20151
0.201136
0.20151
0.202523
0.202089
0.202011
0.202169
0.202523
0.202477
0.202454
0.202474
0.202523
0.20247
0.202451
0.202468
0.202523
0.202463
0.202442
0.202462
0.202523
0.202456
0.202433
0.202455
0.202523
0.202449
0.202423
0.202448
0.202523
0.202442
0.202414
0.202441
0.202523
0.202436
0.202406
0.202441
0.202523
0.202513
0.202523
-0.934402
0.20252
-2.13246
0.202519
0.20252
-1.30373
0.202519
0.20252
-4.27092
0.202519
0.20252
-0.917667
0.202519
0.20252
-2.39877
0.202519
0.20252
0.20252
-1.38734
0.20252
0.202524
0.202519
0.20252
-4.53392
-2.99725
0.202519
-7.62878
-4.66779
0.202523
0.202519
-0.48539
0.202519
-5.95837
0.202524
-7.53785
0.202519
0.20252
0.10929
0.202519
-1.99428
-1.53327
0.202523
0.202518
-3.42003
0.202524
-2.88456
0.202518
-5.63508
-7.09502
0.202523
0.202518
-3.37189
-8.38988
0.202523
-0.403697
0.202519
0.202521
0.202518
-1.65016
-2.13799
0.202519
0.202519
-8.47603
0.202523
0.202518
0.202519
0.202519
0.202524
-0.463577
0.202518
-1.41268
-0.31899
0.202523
0.202518
-8.30188
0.202524
0.202518
-2.99309
-2.83478
-0.799515
0.202523
0.202518
0.202519
-3.20972
0.202518
0.202519
0.202519
-0.44431
0.202519
-1.39011
-0.866683
0.202523
0.202518
-5.0978
0.202524
0.202518
-0.372491
0.202524
-6.59594
0.202518
-0.302613
0.202524
-1.80466
0.202518
-1.80144
0.202522
0.202523
-0.846176
0.202523
-2.8984
0.202523
-1.92455
0.202523
0.202523
-1.70094
0.202523
-8.42949
0.202523
-8.3317
0.202523
-1.51781
0.202523
-0.945599
0.202523
-3.81855
0.202523
-1.00666
0.202523
-2.98843
0.202523
-0.827733
0.202523
-1.7218
0.202523
-0.854242
0.202523
-3.06266
0.202523
-1.61206
0.202523
-1.11294
0.202523
0.202522
-6.70874
-8.33172
0.202523
-8.15543
0.202523
0.202523
-3.17367
0.202523
-1.812
0.202523
-2.03261
-2.74191
0.202523
-0.743303
0.202523
-2.72721
0.202523
0.202524
-1.9325
-1.78968
0.202523
-0.998247
0.202523
-5.15518
0.202523
-2.10923
0.183977
0.202523
-0.449356
-0.859128
0.202523
-4.59417
-0.203356
0.202523
-0.0158177
0.202523
-4.70223
-4.99244
0.202523
-2.02287
0.202523
-2.26462
-0.383984
0.202523
-4.53777
-6.89612
0.202523
-2.61398
0.202523
-0.492429
0.202523
-2.90817
0.190849
0.202523
-1.85801
-1.83165
-2.62563
-2.80577
-2.62354
-1.00813
-5.298
-2.90448
-0.853725
-1.84573
-0.409786
-2.2461
-0.758933
-6.40854
-0.766877
-2.25933
-2.03816
-2.14618
-0.629061
-4.67135
-0.864362
-4.4279
-0.428387
-1.0946
-0.508127
-7.29671
-7.70683
-3.86873
-1.75739
0.176084
-3.21499
0.180733
-6.90299
-3.22632
-0.221726
-2.6247
-1.16291
-6.66029
-3.10197
-8.01806
-1.69672
-8.33296
-3.11477
-0.848008
-0.598077
-1.74861
0.0737165
-8.29753
-8.29948
-8.28619
-1.86524
0.0239158
-0.372063
-5.8264
-2.47888
-8.36246
-0.859476
0.174667
-7.50007
-1.02968
-0.240969
-0.515399
-8.38874
-8.42863
-8.47554
-7.80112
-3.49483
-2.34742
-0.499248
-5.71753
-2.39527
-1.07402
-0.248881
-0.811344
-1.19959
-2.45832
-0.904302
-0.272184
-0.93906
0.131509
-0.487178
-3.00635
-1.9373
-0.95915
-0.668009
-2.48424
-2.03383
-1.74965
-1.7343
-1.77709
-0.629203
-2.72751
-2.77918
-4.57593
-0.571229
-1.81304
-2.15357
-1.74819
-1.39306
-1.76671
-2.71573
-1.02876
-2.84754
-2.34635
-2.62354
-0.549417
-0.363622
-2.29323
-2.45181
-0.276996
-0.867863
-2.80577
-2.25723
-0.163223
-0.600572
-2.19926
-0.448218
-2.84754
-2.31086
-2.29886
-2.31086
-6.29694
-2.40752
-2.48959
-2.59169
-2.71171
0.17946
-5.48436
-0.420447
0.157659
-3.53032
-0.798204
-7.33295
0.117573
0.195333
-3.40052
-4.73461
-0.688642
-2.58729
-4.76784
-1.81643
-5.05756
-1.47759
-3.10191
-5.33593
-2.78339
-1.21568
-0.290893
-0.816239
-7.47484
-1.06396
-2.61549
-3.18279
-5.23689
-2.37645
-6.87363
-5.13843
-0.693663
-4.65125
-1.71237
-1.07618
-4.60403
-0.410522
0.166624
-2.85167
-3.32729
-0.924161
-7.70207
-5.12633
-4.18099
-0.587795
-0.267643
-1.54771
-0.983977
-1.70736
-1.13848
-2.56726
-5.00968
-3.17665
-2.80115
0.161706
-5.35675
-3.87062
0.0675376
-1.94062
-0.837042
-5.06273
-0.742688
-1.88653
-1.17668
-0.0147891
-4.84109
-5.10774
-5.23436
-0.344468
-5.13012
-5.91355
-4.12505
-1.60187
-5.07695
-1.73888
-2.94565
-2.94027
-3.15223
-1.60686
-1.36025
-3.50768
-4.49305
-0.56701
-3.1931
-2.93137
-4.76529
-2.91476
-3.03393
-3.6755
-0.244916
-1.08186
-3.17185
-5.0705
-4.85296
-1.02484
-1.79816
0.132667
-4.56393
-4.86935
-0.68426
-1.65815
-0.902035
-3.46858
-3.1505
0.151813
0.0770334
-3.30645
0.0913429
-2.79069
0.140892
0.103963
-0.187978
-3.51306
-3.13278
-0.108966
-2.96766
-2.34613
-6.69255
-2.89337
-2.77578
-4.40425
-2.66031
-0.972931
-1.04285
-3.35563
-4.87831
-0.253176
-2.69201
-1.4454
-0.963399
-1.45486
0.134704
-4.91772
-2.34662
-0.204396
-0.129004
-7.69837
-0.569998
-3.61752
-2.61229
-4.76406
-0.840383
-4.41625
-1.38888
-0.592555
-0.588773
-4.5367
-4.46806
-0.938971
0.151606
-4.73609
-2.71476
-2.25109
-4.81195
-4.95698
-7.16123
-0.461562
-2.85276
0.18507
0.184835
-2.56882
-2.73716
0.11862
-2.74452
-4.83993
-0.997895
-0.996388
-0.699694
-1.52773
0.133392
-0.560829
-8.2663
-1.12434
-3.51059
0.162575
-2.49367
-3.21513
-2.07457
0.189262
-2.78293
-3.29165
-1.28729
-2.64289
-1.87791
-1.7034
-0.0897767
-3.68428
-0.677929
-0.500717
-0.320748
0.0709182
-3.1362
-2.75064
-4.94642
-2.24962
-1.70114
-0.240679
-0.817715
-1.15551
-0.925232
-0.382127
-3.08972
-0.271303
-3.40332
-0.926911
-0.897786
-1.47382
-1.29727
-2.82051
-5.35662
-0.294482
-2.99484
-0.5967
-5.21803
-8.06486
0.128062
-3.78164
-7.55394
-2.44144
-1.48871
0.125889
-1.29555
-1.92835
0.128042
-0.189556
-1.22992
-7.48568
-0.130949
-7.9412
-0.411701
-7.77027
-3.88041
-2.00968
-4.39711
-7.97639
-1.48324
-3.4463
-7.72462
-4.27229
-8.05479
0.129816
-3.30052
-1.34222
-3.10693
-1.17648
-7.93975
-1.10899
0.200233
-3.73713
-5.76976
-6.29651
-0.663265
-2.1666
-0.141483
-1.37658
-1.12127
-4.94758
-0.788157
0.116242
-6.86783
-3.37662
-8.20652
-4.9741
-8.22322
-0.625922
-2.33577
-2.02094
-3.51695
-0.111638
-4.26916
-0.31422
-2.97972
-3.18511
-3.04456
-1.4078
-1.61933
0.175279
-3.29757
0.160948
-5.42018
-5.01848
-0.471781
-1.01548
-1.18971
-1.55219
-2.59667
-0.622579
0.0762557
-0.72102
-1.53091
-3.03325
-3.47484
-2.15152
-1.27116
-1.60955
-2.42656
-2.37482
-0.478322
0.165856
-0.0461542
-2.3511
-0.636327
-1.32109
-0.953764
-5.02861
-1.08459
-0.0273416
0.170728
-0.984863
-0.23018
-1.67556
0.187841
-6.53985
-6.02057
-6.55166
-0.34182
-0.966083
-0.195342
-0.324322
-2.15136
-0.424331
-0.199655
-2.66425
-5.15411
-0.474641
-1.55917
0.142947
-4.88474
-0.694248
-5.04303
-2.03427
-2.98216
-1.35143
-3.27769
-5.85701
-1.49208
-0.148237
0.173324
-1.9278
0.141264
-4.92159
-2.9305
-5.02668
0.0785838
-4.97984
-4.83706
-0.111018
-6.21872
-3.09865
-1.37571
-3.13747
-2.98737
-1.30738
-6.48654
-1.97225
-0.225901
-2.87418
-3.09843
-0.175631
-0.311478
-0.434
-2.56727
-2.2565
-1.96598
-1.80896
-0.174712
-8.31328
-4.98001
0.141649
-0.883402
-0.840783
-0.13773
-1.42513
-0.719228
-2.22293
-2.42898
-3.08226
-0.944831
-3.21108
-0.532117
-1.23235
-1.76948
-0.935041
-0.635556
-1.79128
-3.21298
-0.964952
-0.413647
-0.109434
-1.2778
-0.000374063
-4.55768
-4.33756
-5.32803
-3.8969
-3.28792
-1.76311
-0.826785
-3.97009
-1.83605
-1.92888
-5.72446
-2.78996
-1.09522
-2.31017
-1.622
-2.0523
-2.72611
-0.857173
0.0802599
-2.10589
-0.0949821
-2.76489
-4.89519
-0.506692
-2.1631
-2.53154
-0.286447
-1.26804
-1.97933
-2.88367
-4.90585
-3.96249
-0.624551
-2.608
-4.65232
-2.62983
-0.168733
-0.851359
-2.36013
-0.483499
-4.73261
-0.603456
-0.299408
-0.813164
-2.04813
-6.27593
-1.87643
0.171695
-1.15216
-0.660629
-1.28532
0.109262
-0.5312
-1.41543
-1.40001
-2.38793
-2.27649
-0.746977
0.0489629
-5.1789
-2.11874
-1.44484
-0.0813186
-0.346452
-2.2984
-3.17348
-5.61464
-0.945919
-0.296877
-0.256739
-0.525084
-0.360221
-0.361106
-5.77508
-1.6744
-6.63804
-4.20754
-3.61931
0.115688
-1.99266
-0.470667
-0.181336
-0.662372
0.0639814
0.164148
-3.44468
-0.388702
-0.840693
-1.14566
-4.31765
-0.0382908
-2.08156
-0.916891
-1.12637
-0.289297
-2.68509
-2.27949
0.183741
-2.22624
-0.228396
-1.12175
-0.748427
-1.07653
-6.9896
-0.330823
-1.2893
0.0949086
-0.887457
-2.03614
-0.793124
-0.492054
-3.69154
0.194035
-0.682321
-0.292097
-2.16211
-0.486884
-5.15915
-2.98482
-1.66705
-6.1369
-1.93068
-0.256384
-1.98017
-1.16265
-0.698564
-1.47368
-0.273301
-2.97747
-1.11798
0.193307
-0.0451295
-0.68617
-5.01357
-0.510896
0.163583
-0.314426
-3.14393
-2.05281
-1.34492
0.158335
-0.334917
-6.75374
-5.48446
-0.679579
-0.914407
-1.62457
-7.13803
-0.421349
-3.45343
-5.1804
-2.58448
-5.22312
-0.701404
-0.500151
-0.649538
-6.62808
-0.320619
-0.0534033
-6.53408
-1.98328
-3.59743
-0.516752
-0.547317
-1.18328
-4.90211
-0.744007
-0.919152
-0.663529
-0.203091
-1.96221
0.0525862
-4.23936
-0.426334
-1.51813
-1.91787
-0.207232
-0.788701
-1.96433
-3.73249
0.175507
-0.327995
-1.76147
-0.399174
-3.35019
-0.608928
-2.80186
-3.99418
-0.72781
-5.45056
-0.727083
-7.6465
-0.578747
-3.7765
-6.8615
-3.44936
0.167363
-0.801021
0.127863
-3.85688
-0.546361
-0.503196
-1.0789
-0.368567
-0.698479
-1.68093
-7.50222
-5.25176
-4.82343
0.188332
-0.755592
-0.709112
-0.271264
-2.05974
-0.747499
-3.57606
-0.668348
-0.625409
-1.49884
0.153262
-0.54877
-3.45764
-3.04089
-3.89125
0.0807961
-0.901148
-1.05643
-0.533148
-3.79551
-3.33015
-0.741765
-3.74947
-3.72975
-6.50448
-1.94409
-5.33081
-0.98264
-0.644063
-0.959695
-0.702443
-6.51341
-0.666611
-0.84641
-7.50143
-0.785547
-0.427531
-1.08322
-3.62431
-1.36284
-7.2933
0.170053
-4.59706
-1.75315
0.115171
-0.907721
-3.63798
-0.598296
-7.75362
-7.37173
-3.85427
-7.3723
-0.909743
-4.54612
-2.20424
0.191898
-0.456898
-0.539344
-0.837452
-7.59315
-7.98633
-5.03997
0.185103
0.156824
-3.96548
-4.31487
-0.504613
-8.20177
-7.69633
-0.69815
-2.07642
-0.434664
-0.202679
0.115498
-0.628473
-2.87511
-7.89387
-7.52327
-5.09912
-2.0638
-0.0854688
-1.53043
-0.800662
-0.444723
-0.900238
-0.827854
-7.80669
-2.46663
-6.23568
-1.82335
-3.05695
-5.47602
0.172677
-7.21851
-4.04556
-1.82023
-0.363606
0.198199
-2.96504
-4.61729
-8.07832
-4.97862
-6.08627
-7.83541
-3.78719
-7.889
-3.25621
-0.311418
-0.518818
-0.298431
-0.66512
-0.802058
-1.8706
-5.88776
-5.5994
-4.85532
-5.61387
-4.47298
-0.190617
-2.38723
-3.96648
-5.11746
-0.971488
-0.179527
-0.721815
-7.16159
-5.76135
-6.39504
-2.29736
-3.06068
-0.657508
-7.11033
-2.19367
-0.498821
-5.9552
0.169435
-0.86734
-3.75458
-0.360119
-8.10792
-5.17057
-5.95339
-0.373166
-8.04298
0.190448
-2.15743
-3.1451
-1.47525
-4.12698
-7.01271
-1.92141
-0.80358
0.110753
-7.91521
-0.664977
-2.96844
-0.314126
-0.257474
-2.14909
0.160211
-0.250029
0.122369
-1.29276
-0.244847
-6.56725
-3.72919
-0.191912
-4.57724
-2.61249
-1.98615
-0.551561
0.17852
-2.14858
-4.70411
-0.554357
-0.723353
-1.97329
-2.22401
-3.98858
-2.84692
-2.98948
-1.06757
-0.00138274
-0.337093
-2.96752
-2.43384
-5.83036
-0.720059
-2.57392
-3.36158
-3.25201
-2.15514
0.193624
-0.901395
-0.511921
0.158758
-3.98187
0.0570227
-1.94008
-6.37162
-3.77158
-2.20712
-1.88033
-5.97308
-0.638253
-0.711518
-0.624744
-1.79486
-2.93148
-2.99183
-1.28861
-4.65854
-1.86119
-2.28305
0.173473
-0.425185
-2.1887
-4.44095
-4.60778
-0.559448
-5.08282
0.196445
-1.28489
0.196072
-2.05925
-4.14247
-4.03487
-2.45451
-2.81438
0.104024
-7.94039
0.117456
-4.43863
-0.92625
-2.07272
-0.270293
-2.45266
-3.95728
-6.82781
-2.82082
-2.55317
-0.765589
-4.287
-0.603839
0.191817
-6.23351
-6.15966
-1.4695
-0.620082
-1.62257
-4.292
-6.71697
-0.339003
-5.13532
-6.38705
0.0607927
-0.799695
-0.505067
-3.90644
-1.46781
-2.72477
-1.8072
-4.31723
-8.08596
-8.02433
-8.10996
-7.62075
-6.26786
-4.00933
-2.87745
-6.05656
-6.81327
0.149433
-3.67368
-2.44327
0.197409
-0.57372
-0.35765
-1.65027
-5.15954
-6.44097
-0.548985
-4.06395
-0.181405
-2.46679
-1.48139
-2.02262
-0.904433
-4.09969
-2.00768
-2.36703
-2.94041
-2.37372
-0.782733
0.184004
-4.6795
-0.0830514
-0.274657
-0.258857
-2.5433
-4.2919
-2.88542
-3.3394
-4.80891
-5.28316
-0.623996
-3.55658
-3.59859
-1.53965
-0.46646
-4.93132
-4.2301
-6.82673
-0.663245
-4.98575
-4.16525
-1.22849
-4.84781
-3.10331
0.196663
-4.2581
-0.334475
-1.16038
-4.45567
-0.438921
-1.08694
-1.60696
-4.84353
-6.02993
-2.09329
-2.27001
0.12549
-0.497314
-4.40986
-1.16597
-1.42094
-3.45848
-1.34302
-1.49781
-1.41851
-0.446573
-6.14401
-4.39687
-0.167275
-2.8335
-0.28227
-3.84007
0.199958
0.149977
-2.62523
-4.70768
-6.14881
-6.73702
-1.03085
-0.376966
-1.05427
-0.810815
-1.15097
-0.38523
-0.975488
-0.51368
-0.589661
-0.475196
-4.55078
-6.93055
-5.75497
0.197142
-0.69475
-5.61395
-5.37008
-3.70108
-2.11524
-4.48966
-4.0928
-0.50441
-0.673437
-1.04006
-1.1947
-1.17874
-3.47948
-5.62298
-0.58858
-2.18861
0.0280479
-0.945194
-3.87281
-2.54112
0.187981
0.200445
-1.03482
-6.23508
-5.60075
-3.42259
-1.17198
-0.593967
0.165568
0.00392161
-4.68662
-7.30157
-5.70807
-0.783078
-5.79
-2.87991
-5.71422
-1.19602
0.202526
-2.47
-5.6365
-1.10778
-4.33655
-0.82817
-4.59451
-5.48474
-1.2182
-7.56148
-2.69338
-2.76161
-2.29679
-4.67408
-3.5104
0.185123
-4.79794
-7.30857
-0.47187
-0.420841
-4.38643
-1.05037
-0.48433
-0.518395
-5.4474
-1.22131
-0.802124
0.199525
-5.46495
0.190904
-6.91839
-2.61829
-3.81219
-1.05852
0.1991
-7.50923
-0.826809
-1.28709
-6.97992
-3.39207
-2.65342
-5.82015
-0.695601
-0.339988
-0.418841
-5.75232
-0.310409
-5.23835
-0.0991239
0.187546
-6.00285
-0.508704
-1.10428
-5.31109
-3.99918
-0.610763
-0.904745
-0.244369
-5.16945
-5.71494
-6.02454
-0.374704
-2.29382
-5.86815
0.195951
-2.71433
-6.59723
-2.53855
-6.73361
-5.40701
-5.9142
-5.96689
-6.10257
-6.11456
-0.721635
-2.46496
-2.32819
-0.473662
0.19095
-5.9213
-0.467554
-6.19376
-6.1917
-5.98458
-5.94909
-1.64828
-3.25989
0.144794
-1.26934
-0.674977
-0.49402
-6.44872
-6.40038
-6.52918
-6.03184
-6.2434
-6.53655
-3.91188
-6.4241
-1.20337
-6.56863
0.197884
-6.29605
-3.88756
-5.63747
-5.13578
-2.52912
-0.704233
-5.33801
-6.09092
-3.91968
-5.28453
-4.07811
-2.51123
-0.563511
-1.2301
0.201425
-3.16769
-3.25836
-0.00604595
-6.46993
-0.895189
-3.36084
-1.23044
-5.43354
-8.06006
-0.69897
-2.26104
-5.38823
-3.35419
-2.60551
-8.11839
-3.52729
-6.4017
-8.15217
-7.66278
0.200126
-7.94505
-2.68204
-4.68847
-2.94031
-1.16144
-4.44394
-2.53133
-2.97364
-3.47918
0.0349994
-0.846959
-1.55871
-2.37381
-1.70991
-0.709925
-1.09421
0.12309
-6.09058
-0.271718
-2.84238
-2.53733
-2.42356
-2.87423
-0.661633
-2.74956
-3.28375
-1.60096
-2.47705
0.0548417
-5.38713
-4.0069
-0.419219
-3.50166
-1.19994
-1.18689
-3.28334
-0.863263
-3.53836
-2.30271
-0.957831
-2.75691
-2.7331
-0.959018
-0.571643
-1.29058
0.200353
-6.50545
-0.492865
-0.854052
-0.364692
-6.22478
-2.06485
-2.93982
-0.61643
-0.845693
-3.15809
-1.67588
-1.08349
0.0941836
-5.23629
-0.493925
-0.97208
-5.91768
-0.980162
-5.59875
-1.01606
-0.841196
-0.571727
-3.76304
0.0348684
-0.378281
-1.88359
-3.86572
-0.800732
-5.86796
-1.46235
-0.365213
-1.16045
-6.45611
-0.988756
-4.26396
-0.756233
-7.18423
-1.574
-1.25899
-1.98103
-1.11298
0.191112
-1.32948
-1.23386
-2.42788
-0.615755
-0.622118
-1.0004
-2.92129
-1.30975
0.182908
-3.27765
-1.79059
-1.08405
0.190932
-0.935774
-6.33613
-6.41159
-6.2145
-3.8749
-0.620989
-2.0942
-0.759432
-1.03244
-5.43959
0.0392034
-1.29223
-0.944716
-0.684167
-1.89402
-3.61786
-0.969948
-5.43779
-2.11493
-1.261
-0.939478
-0.860796
-4.16587
-0.608189
-0.618768
-2.64223
-0.841864
-5.34899
-0.897463
-0.778363
-0.558332
-1.18968
-0.518495
-0.102433
-3.95172
-0.918192
-2.30696
-2.71636
-0.645359
-3.42868
0.183152
-3.14005
-2.17231
-0.600179
-0.139874
-2.23372
0.156467
0.179463
-6.28423
-5.32767
-0.448402
-1.34337
0.177909
-2.01796
-0.034607
-0.81258
-3.29964
-1.75177
-4.36066
0.183076
-0.742409
-0.520432
-0.610621
-0.981879
-3.9523
-0.790897
0.195887
-1.13918
0.176592
-2.25432
0.126888
-1.82701
-5.80192
-0.287076
-0.952182
-0.380985
-0.535462
-0.249723
-0.859013
-0.82535
-1.67568
-1.71639
-6.00459
-0.602173
0.187815
0.075088
-5.20962
-3.57394
-2.14649
-6.95953
-0.43616
-1.51054
-0.400183
-1.39343
-1.0293
-2.61781
-0.960187
-0.746708
-0.657939
-1.85128
-0.847402
-0.996139
-0.61164
-0.789502
-0.560088
-0.654434
-0.422455
-0.649203
-0.99313
-1.35078
-2.26634
-2.52708
0.152185
-1.42733
-0.540268
-2.74445
-6.49863
-2.5513
0.188207
-0.940127
0.1929
-1.70541
0.0149565
0.137429
-0.458054
-3.51876
0.119227
-1.15158
-1.04376
-0.582196
0.103191
-1.00609
0.0824806
-0.688556
-4.05767
0.0601526
-6.57761
-0.568882
-2.44994
-1.06982
-0.716734
0.190596
-3.26222
-7.13383
-5.71687
0.185489
-6.75863
-0.142406
-7.29724
-5.67399
-0.605059
-0.936237
-4.85572
-2.1675
-0.968466
-0.0112743
0.200928
-6.65703
-1.05516
-1.24075
-7.06297
-1.00682
-0.750645
0.184333
-5.85982
0.0196567
-5.10049
0.201502
-2.38218
-0.959537
0.0159287
-7.45451
-1.58349
-2.06762
-5.75553
-0.839736
-0.90108
0.12362
-2.10366
-0.79837
-0.000962371
-1.90322
-0.655268
-2.21634
-2.48259
-5.5662
-0.165906
-0.708739
-0.87122
-7.31013
-2.59878
0.0485882
-0.822739
0.155566
-1.10842
-0.0629663
-1.08293
0.195485
-1.94941
-0.656056
-3.0294
-0.640045
-0.317753
-3.94326
-1.20276
-0.547338
-7.06852
-1.37805
-1.4165
-7.92692
-1.18633
-0.0173644
-0.972948
-7.73223
-7.0045
0.0244675
-1.09953
-1.15403
-1.03551
-0.202066
-1.31971
-1.47584
-1.90622
-3.36715
-1.27688
-3.69594
-0.76251
-1.49042
-7.85235
0.0767483
0.13517
0.0434814
-1.32491
-1.24522
-6.06033
0.0865861
-4.21219
0.201638
-2.38055
0.18252
-6.42249
-1.21678
-0.014073
-1.22975
-1.70176
-0.0113505
0.19133
-8.03074
0.062121
-1.40624
-3.42251
-0.411182
-0.31619
-0.982408
-1.05018
-1.53008
0.135765
-1.7409
-0.472835
-0.683594
0.193553
0.0738587
-0.987199
-4.3592
-1.46495
-4.38074
-1.61551
-1.60188
0.127456
-1.83495
-0.7197
-0.580735
-1.21562
-0.0482056
-1.23725
-1.27721
-5.75871
-7.81214
-0.478538
0.114307
0.0979207
-2.3455
-7.92464
-1.0903
0.154345
-0.484676
-2.53658
0.029387
-0.377729
-1.29903
-5.09262
-2.82712
-1.92938
-0.40512
-5.83517
-5.80858
0.0186163
-2.42265
-4.45982
-4.46797
-4.43443
-0.536708
-0.971891
-0.841463
-6.93506
-1.05815
-4.02165
-1.1953
-0.16095
-1.38023
-0.160954
-4.04088
-2.22829
-1.39594
0.0849705
-5.59355
-1.23402
-0.498692
-5.83632
-2.7111
-5.53934
-2.06163