<VTKFile type="UnstructuredGrid" version="0.1" byte_order="LittleEndian">
  <UnstructuredGrid>
    <Piece NumberOfPoints="17003" NumberOfCells="33813">
      <Points>
        <DataArray type = "Float64" NumberOfComponents="3" format="ascii">
0 0 0.0 
12 0 0.0 
12 4 0.0 
0 4 0.0 
3.31489 2.32896 0.0 
6.63049 0 0.0 
1.20574 0 0.0 
0 2.03118 0.0 
7.24543 2.37344 0.0 
3.67441 2.74747 0.0 
0 1.70279 0.0 
5.70575 2.98528 0.0 
11.3234 0 0.0 
3.65852 0 0.0 
3.63109 1.6941 0.0 
2.34774 2.28924 0.0 
3.14822 0 0.0 
2.55098 0 0.0 
2.72869 2.1731 0.0 
12 2.91971 0.0 
5.36637 0 0.0 
11.586 4 0.0 
5.56878 2.50229 0.0 
5.1594 0 0.0 
9.53375 4 0.0 
12 3.17166 0.0 
3.83762 0 0.0 
6.06535 0 0.0 
4.10903 0 0.0 
0.686314 4 0.0 
4.83493 0 0.0 
5.57611 0 0.0 
2.74369 1.90193 0.0 
5.69372 2.46213 0.0 
5.88083 0 0.0 
3.41722 2.47377 0.0 
6.65286 0.0922782 0.0 
4.13438 3.14363 0.0 
9.40516 0 0.0 
11.3776 4 0.0 
9.22343 4 0.0 
8.14472 0 0.0 
3.20495 1.63981 0.0 
9.57869 0 0.0 
11.6531 0 0.0 
2.44859 2.40764 0.0 
3.50797 2.88271 0.0 
9.11 0 0.0 
3.15243 1.72128 0.0 
2.10649 1.48707 0.0 
2.69072 3.147 0.0 
10.9845 4 0.0 
3.70396 1.41459 0.0 
10.7695 4 0.0 
10.4533 4 0.0 
7.96012 4 0.0 
3.08076 0.991358 0.0 
0.327913 4 0.0 
0.86775 4 0.0 
2.96827 1.79636 0.0 
12 3.55991 0.0 
5.3091 3.06786 0.0 
2.86693 3.03346 0.0 
3.84302 2.05412 0.0 
2.2443 0.904844 0.0 
5.16044 0.692668 0.0 
1.48145 4 0.0 
10.1923 4 0.0 
3.85712 2.39843 0.0 
7.76169 4 0.0 
8.14832 4 0.0 
2.47368 1.5473 0.0 
3.72532 2.60907 0.0 
1.76231 3.08489 0.0 
3.4459 2.41587 0.0 
3.23515 4 0.0 
8.9402 4 0.0 
3.63627 2.71251 0.0 
8.4675 4 0.0 
5.37906 4 0.0 
4.1985 2.82031 0.0 
3.85055 1.46941 0.0 
5.9075 4 0.0 
6.96894 4 0.0 
7.16917 4 0.0 
6.65817 4 0.0 
6.4671 4 0.0 
5.18332 4 0.0 
6.19 4 0.0 
3.00112 1.78511 0.0 
4.27292 2.4058 0.0 
4.9753 4 0.0 
4.69058 4 0.0 
3.42779 2.44382 0.0 
3.32617 1.07069 0.0 
4.19 4 0.0 
4.44 4 0.0 
3.71691 4 0.0 
4.49107 1.39617 0.0 
3.41917 4 0.0 
3.24876 2.03092 0.0 
6.08624 0.852513 0.0 
2.88707 3.57386 0.0 
5.13926 1.01715 0.0 
1.65189 4 0.0 
3.52388 2.35369 0.0 
4.29283 1.66076 0.0 
3.47172 2.85665 0.0 
3.61289 2.96039 0.0 
3.23979 3.08267 0.0 
3.0642 0.879778 0.0 
3.30367 1.59409 0.0 
3.28703 0.836416 0.0 
6.34813 0.126648 0.0 
4.1223 1.02884 0.0 
3.88529 2.76651 0.0 
4.15652 1.55487 0.0 
3.49294 1.57227 0.0 
6.75851 3.54913 0.0 
4.45883 3.26009 0.0 
3.84375 1.4059 0.0 
2.45073 1.99605 0.0 
3.49251 1.47747 0.0 
3.98227 1.68587 0.0 
4.04124 2.87278 0.0 
3.79545 1.64543 0.0 
5.26687 1.58975 0.0 
1.90628 1.0939 0.0 
2.97833 1.67805 0.0 
5.44085 3.11791 0.0 
2.43985 1.7223 0.0 
6.26243 0.7856 0.0 
6.21939 0 0.0 
5.70755 2.06572 0.0 
3.7392 1.56268 0.0 
2.58637 1.44925 0.0 
2.90947 1.48346 0.0 
2.41731 1.07453 0.0 
2.85122 1.46468 0.0 
4.72087 2.62991 0.0 
2.42951 1.69013 0.0 
4.00996 1.11335 0.0 
2.88645 3.72533 0.0 
4.41217 1.0963 0.0 
2.24232 0.983332 0.0 
4.9278 1.52623 0.0 
4.98723 2.9384 0.0 
3.74179 1.70443 0.0 
2.3372 2.96675 0.0 
3.77147 1.57269 0.0 
2.63561 3.08393 0.0 
3.30119 3.19852 0.0 
4.25258 2.26794 0.0 
3.14157 2.60949 0.0 
6.05147 2.54718 0.0 
5.05176 0.712584 0.0 
4.83515 0.841898 0.0 
2.27361 3.09533 0.0 
5.03391 3.12018 0.0 
0.265085 3.48349 0.0 
5.22889 2.63039 0.0 
3.4654 2.69807 0.0 
1.74345 1.84247 0.0 
4.62732 1.598 0.0 
3.43002 1.07314 0.0 
5.54387 1.41571 0.0 
6.1725 0.752793 0.0 
7.41093 2.4613 0.0 
4.66375 1.44741 0.0 
1.7962 2.29954 0.0 
3.2389 1.57273 0.0 
3.28857 2.5488 0.0 
3.96332 1.13745 0.0 
4.48919 3.05278 0.0 
4.12051 1.58012 0.0 
3.25809 3.51351 0.0 
2.91528 1.02708 0.0 
6.51678 0.775513 0.0 
5.2515 0.985317 0.0 
2.84133 1.68881 0.0 
2.36957 2.30935 0.0 
4.22708 2.88886 0.0 
4.81581 1.58798 0.0 
3.07964 1.01856 0.0 
4.61423 1.10788 0.0 
4.50386 1.98726 0.0 
5.08677 1.51947 0.0 
5.45325 2.51931 0.0 
2.74317 1.54017 0.0 
3.83538 1.75828 0.0 
5.07685 2.86269 0.0 
3.67039 1.47062 0.0 
6.8707 3.13691 0.0 
3.36017 3.20157 0.0 
4.28938 0 0.0 
3.92859 1.75983 0.0 
3.01526 3.06892 0.0 
3.58549 1.89314 0.0 
5.72933 0 0.0 
4.76122 2.70584 0.0 
4.6306 2.62889 0.0 
6.9551 1.86088 0.0 
2.24446 2.32051 0.0 
2.23622 1.67147 0.0 
3.3526 2.04281 0.0 
3.37907 3.00092 0.0 
3.15034 2.121 0.0 
5.91724 1.59003 0.0 
1.8687 1.12424 0.0 
3.88521 0.997292 0.0 
1.84627 2.54667 0.0 
8.84816 0.137316 0.0 
2.82723 0.901736 0.0 
5.27112 1.05427 0.0 
4.61976 3.57501 0.0 
1.72617 1.62016 0.0 
4.19497 1.65706 0.0 
1.86878 3.15151 0.0 
3.54154 1.59553 0.0 
5.53926 0.0889695 0.0 
3.83616 1.53699 0.0 
8.1221 0.842632 0.0 
1.99154 1.76002 0.0 
3.10643 2.02128 0.0 
6.03022 2.41635 0.0 
4.77004 3.07143 0.0 
12 2.70513 0.0 
11.0062 3.29344 0.0 
3.71096 2.82272 0.0 
0.279603 3.65266 0.0 
3.36795 1.42701 0.0 
3.14371 2.10315 0.0 
3.97474 1.49622 0.0 
2.62409 1.31675 0.0 
3.43049 2.8681 0.0 
2.46262 2.19422 0.0 
2.8325 1.52039 0.0 
2.89891 1.94174 0.0 
2.98112 2.02899 0.0 
3.31249 1.51663 0.0 
2.42739 3.08091 0.0 
4.56297 1.08355 0.0 
3.28603 1.06702 0.0 
4.83936 2.84299 0.0 
4.98866 1.53982 0.0 
8.06273 1.18252 0.0 
4.70914 2.58228 0.0 
2.53851 1.67305 0.0 
2.75134 2.59316 0.0 
3.22916 2.8621 0.0 
4.98126 0 0.0 
4.84233 0.387687 0.0 
4.49528 1.48578 0.0 
4.55487 1.56749 0.0 
8.48741 0.487731 0.0 
3.01006 1.85762 0.0 
4.4853 0.136404 0.0 
4.9378 0.710742 0.0 
1.81774 1.96137 0.0 
2.36731 2.85744 0.0 
9.25255 0.295212 0.0 
8.8 1.46127 0.0 
3.18901 1.46092 0.0 
6.43334 0.732897 0.0 
2.48924 1.75031 0.0 
2.94651 2.1315 0.0 
1.68525 1.49997 0.0 
2.47594 2.53315 0.0 
3.09508 2.58203 0.0 
7.96724 0.660577 0.0 
3.8012 2.49716 0.0 
7.53274 0.367671 0.0 
1.42852 2.25656 0.0 
2.43717 1.12486 0.0 
4.22299 1.75957 0.0 
2.19529 1.94897 0.0 
5.95245 0.779624 0.0 
4.71474 0.34006 0.0 
3.09467 1.77881 0.0 
2.91136 1.86922 0.0 
3.71216 2.73111 0.0 
4.33386 1.48435 0.0 
7.30694 3.67354 0.0 
2.33888 1.08611 0.0 
3.03671 1.98843 0.0 
0.789193 0.25624 0.0 
1.67141 1.75125 0.0 
1.86522 2.04501 0.0 
5.52233 1.53409 0.0 
4.27001 1.24504 0.0 
3.1007 1.98097 0.0 
1.5338 0.27227 0.0 
6.7552 3.69523 0.0 
2.70793 2.94943 0.0 
4.75662 3.58989 0.0 
7.41509 2.58621 0.0 
2.12509 3.6478 0.0 
2.73426 1.02027 0.0 
5.17286 2.65759 0.0 
5.61349 2.63876 0.0 
2.9188 0.842339 0.0 
6.34214 0.721879 0.0 
2.93788 1.57243 0.0 
5.16414 1.07673 0.0 
2.77068 1.49737 0.0 
8.29537 0.322182 0.0 
4.56977 1.75074 0.0 
1.68287 1.80625 0.0 
2.81199 2.11548 0.0 
6.72283 0.733423 0.0 
2.19502 3.09472 0.0 
5.39088 3.17908 0.0 
3.71413 1.70273 0.0 
1.39118 0.22714 0.0 
6.61103 0.747894 0.0 
6.05923 0.751029 0.0 
7.91093 0.226095 0.0 
2.70567 0.291804 0.0 
3.3859 1.68216 0.0 
3.81257 0.234531 0.0 
2.81332 0.228746 0.0 
2.47115 2.89342 0.0 
3.69434 2.999 0.0 
3.45037 3.14576 0.0 
2.69439 1.00592 0.0 
7.59739 0.263801 0.0 
2.80061 2.10864 0.0 
7.04145 2.81209 0.0 
6.10361 2.1405 0.0 
0.649181 0.321486 0.0 
6.73612 0.832709 0.0 
10.6421 0.309487 0.0 
3.70163 1.51925 0.0 
2.68984 1.91255 0.0 
3.54719 0.294644 0.0 
8.89909 0.431692 0.0 
2.74486 3.06028 0.0 
3.87973 0.63935 0.0 
3.68049 0.29076 0.0 
3.92337 0.293922 0.0 
3.36855 2.44918 0.0 
1.10677 0.352551 0.0 
0.39285 1.25118 0.0 
2.91272 0.285809 0.0 
4.07822 0.821291 0.0 
0.593516 1.27738 0.0 
8.73617 0.461298 0.0 
0.916393 0.263069 0.0 
3.38168 2.09375 0.0 
4.96728 1.42408 0.0 
3.39695 2.00737 0.0 
9.83547 0.406177 0.0 
5.85895 0.744182 0.0 
3.14043 1.4542 0.0 
3.39095 0.251893 0.0 
11.7949 3.27324 0.0 
8.8493 0.549358 0.0 
3.04396 0.317955 0.0 
9.69149 0.453318 0.0 
3.4036 1.78191 0.0 
2.50481 0.32776 0.0 
7.46044 0.213639 0.0 
7.48494 3.44568 0.0 
11.6879 3.08469 0.0 
0.890042 3.775 0.0 
4.61148 1.66282 0.0 
3.97884 0 0.0 
2.60149 0.253608 0.0 
5.11051 2.81216 0.0 
4.24982 0.244254 0.0 
2.39118 0.236716 0.0 
6.90562 3.67608 0.0 
3.21169 0.273771 0.0 
4.98751 2.00808 0.0 
1.74917 0.245954 0.0 
1.87932 0.271734 0.0 
3.88083 1.59753 0.0 
2.94927 0.137401 0.0 
1.16188 3.83114 0.0 
11.16 0.431413 0.0 
5.74032 1.52164 0.0 
4.28955 1.47742 0.0 
10.0094 0.430022 0.0 
0.261848 2.62521 0.0 
3.94894 0.140341 0.0 
7.06606 0.70559 0.0 
3.12093 3.00358 0.0 
7.44289 4 0.0 
4.04693 0.167421 0.0 
10.3407 0.446931 0.0 
4.39512 0.222515 0.0 
3.2802 2.8002 0.0 
2.56951 2.97737 0.0 
4.23917 0.805389 0.0 
2.01709 0.337885 0.0 
9.38358 0.34728 0.0 
8.33342 0.473475 0.0 
11.6514 0.196094 0.0 
3.05777 0.166732 0.0 
2.7267 2.88901 0.0 
4.04285 0.338315 0.0 
0.346527 1.64782 0.0 
0.254948 3.06917 0.0 
4.14472 2.99529 0.0 
1.26479 0.336817 0.0 
2.42727 3.6024 0.0 
2.97696 3.21917 0.0 
4.81229 0.742748 0.0 
1.63732 0.319003 0.0 
3.08251 2.50412 0.0 
2.55181 3.60469 0.0 
3.50525 1.90812 0.0 
10.7931 0.252606 0.0 
3.79239 1.09098 0.0 
3.55414 3.13028 0.0 
7.09385 3.7308 0.0 
11.5549 2.66073 0.0 
11.7998 2.90088 0.0 
1.7409 3.77763 0.0 
10.1945 0.431927 0.0 
0.778952 3.70913 0.0 
7.98885 1.35928 0.0 
11.6807 1.65277 0.0 
0.663914 3.71011 0.0 
11.712 2.20916 0.0 
5.36341 2.52696 0.0 
7.00303 0.581502 0.0 
3.81354 3.63163 0.0 
11.6929 1.16835 0.0 
11.6509 1.86127 0.0 
7.78226 3.74643 0.0 
0.49456 1.09966 0.0 
3.49277 3.55974 0.0 
2.66467 3.54629 0.0 
2.78207 1.76963 0.0 
11.8092 1.8621 0.0 
4.2895 1.70303 0.0 
11.791 3.51495 0.0 
3.83389 0.103605 0.0 
0.0933757 1.56471 0.0 
3.14972 3.23104 0.0 
0.308397 0.898839 0.0 
0.137519 1.42379 0.0 
12 3.37387 0.0 
6.02102 3.74485 0.0 
0.277275 2.32354 0.0 
1.75313 3.14701 0.0 
4.68545 2.97889 0.0 
11.3914 1.82454 0.0 
2.83236 0.104539 0.0 
0.568535 3.83706 0.0 
3.12955 3.55241 0.0 
1.29231 3.90963 0.0 
2.28562 3.04972 0.0 
1.06081 3.71246 0.0 
2.77524 3.62156 0.0 
4.07333 1.71817 0.0 
4.6792 3.70082 0.0 
0.625887 3.55951 0.0 
4.26553 3.62342 0.0 
2.27861 3.6183 0.0 
6.44044 3.74737 0.0 
4.3695 3.24064 0.0 
2.0037 2.06321 0.0 
6.17079 3.67419 0.0 
3.80221 2.97625 0.0 
5.06454 1.69305 0.0 
3.87504 2.2676 0.0 
2.9912 3.58978 0.0 
0.543682 3.68222 0.0 
4.98504 2.87587 0.0 
7.36098 2.66304 0.0 
3.98353 3.10255 0.0 
1.9016 3.74707 0.0 
5.5193 3.5556 0.0 
5.89104 3.84107 0.0 
4.96679 3.61351 0.0 
6.63889 3.63748 0.0 
5.07884 3.525 0.0 
2.20512 2.37418 0.0 
2.75149 1.46407 0.0 
6.02189 1.4675 0.0 
2.99635 0 0.0 
5.89384 3.54813 0.0 
6.19283 3.83348 0.0 
[...]
<PointData>
  <DataArray type = "Float64" Name="Vitesse" NumberOfComponents="3" format="ascii">
1 0 0.0 
1.05984 0 0.0 
1.05204 0 0.0 
1 0 0.0 
0.986915 -0.0234729 0.0 
1.06622 0 0.0 
1.00429 0 0.0 
1 0 0.0 
0.880228 -0.00918876 0.0 
1.11614 -0.00778049 0.0 
1 0 0.0 
1.06762 -0.00763725 0.0 
1.06037 0 0.0 
1.06033 0 0.0 
1.02685 -0.0106688 0.0 
0.93904 0.136842 0.0 
1.04875 0 0.0 
1.03111 0 0.0 
0.63822 0.0978207 0.0 
1.02998 -0.00317671 0.0 
1.069 0 0.0 
1.05238 0 0.0 
0.983972 -0.016372 0.0 
1.06931 0 0.0 
1.05414 0 0.0 
1.04882 -0.00133038 0.0 
1.06322 0 0.0 
1.06748 0 0.0 
1.06638 0 0.0 
1.00247 0 0.0 
1.06943 0 0.0 
1.0686 0 0.0 
0.852615 -0.0679149 0.0 
0.955178 -0.0162796 0.0 
1.06791 0 0.0 
1.132 -0.00753324 0.0 
1.0662 0.000195396 0.0 
1.08877 -0.00797605 0.0 
1.06208 0 0.0 
1.05254 0 0.0 
1.0545 0 0.0 
1.06359 0 0.0 
1.07822 -0.0615649 0.0 
1.0619 0 0.0 
1.06012 0 0.0 
1.00581 0.147676 0.0 
1.11254 0.00666376 0.0 
1.06239 0 0.0 
1.04333 -0.0618601 0.0 
0.983604 -0.0391284 0.0 
1.06479 0.0410876 0.0 
1.05282 0 0.0 
1.09207 -0.0192773 0.0 
1.05298 0 0.0 
1.05324 0 0.0 
1.05651 0 0.0 
1.05617 -0.0332889 0.0 
1.00055 0 0.0 
1.00415 0 0.0 
0.995269 -0.0614993 0.0 
1.05274 -0.000313425 0.0 
1.07122 -0.00878821 0.0 
1.0816 0.0443551 0.0 
0.300223 -0.0125182 0.0 
1.01587 -0.0267459 0.0 
1.07095 0.00125847 0.0 
1.0138 0 0.0 
1.05347 0 0.0 
0.987858 -0.0486737 0.0 
1.05695 0 0.0 
1.05614 0 0.0 
1.00308 -0.081255 0.0 
1.11604 -0.0192415 0.0 
1.01232 0.0266015 0.0 
1.08988 -0.0229067 0.0 
1.07301 0 0.0 
1.05487 0 0.0 
1.12006 -0.0073857 0.0 
1.05558 0 0.0 
1.06876 0 0.0 
1.09198 -0.0169271 0.0 
1.08963 -0.00982416 0.0 
1.06464 0 0.0 
1.05927 0 0.0 
1.05858 0 0.0 
1.06051 0 0.0 
1.0614 0 0.0 
1.07055 0 0.0 
1.06288 0 0.0 
1.00249 -0.0610076 0.0 
0.955527 -0.0394568 0.0 
1.07255 0 0.0 
1.07535 0 0.0 
1.11589 -0.0142045 0.0 
1.06847 -0.0299958 0.0 
1.07948 0 0.0 
1.07761 0 0.0 
1.0797 0 0.0 
1.07391 0.00392135 0.0 
1.07657 0 0.0 
0.0385075 -0.0033386 0.0 
1.06844 0.00214529 0.0 
1.06615 0.0155203 0.0 
1.07223 0.00251307 0.0 
1.01814 0 0.0 
0.981168 -0.0476379 0.0 
0.978291 0.0163418 0.0 
1.11513 0.00871574 0.0 
1.10574 0.00213341 0.0 
1.09705 0.0223255 0.0 
1.05318 -0.0287062 0.0 
1.08701 -0.0534184 0.0 
1.06061 -0.0230771 0.0 
1.06689 0.000286923 0.0 
1.07774 -0.00594099 0.0 
1.10521 -0.0149158 0.0 
1.05811 0.00584451 0.0 
1.09234 -0.0356724 0.0 
1.06079 -0.0018398 0.0 
1.0816 -0.00807869 0.0 
1.09004 -0.0117352 0.0 
0.688179 -0.201513 0.0 
1.09335 -0.0346366 0.0 
0.983426 0.0138606 0.0 
1.0966 -0.0137138 0.0 
1.04502 -0.000747487 0.0 
0.983945 0.0117052 0.0 
1.00162 -0.0220167 0.0 
1.07188 -0.0779659 0.0 
1.0699 -0.00772558 0.0 
0.971339 -0.108927 0.0 
1.06788 0.00188738 0.0 
1.06713 0 0.0 
0.653692 -0.00437275 0.0 
1.08509 -0.0127225 0.0 
1.02354 -0.0734812 0.0 
1.06088 -0.0702995 0.0 
1.01977 -0.0383134 0.0 
1.05463 -0.0713204 0.0 
1.06202 -0.0205452 0.0 
0.976231 -0.0998445 0.0 
1.08003 -0.0082438 0.0 
1.0641 0.00972097 0.0 
1.0774 -0.00105971 0.0 
1.01406 -0.0296087 0.0 
1.03138 0.00988343 0.0 
1.07491 -0.0119828 0.0 
0.997891 0.00334936 0.0 
1.03686 0.0534117 0.0 
1.08041 -0.00951467 0.0 
1.06191 0.0465803 0.0 
1.09197 0.0166751 0.0 
0.733894 -0.0441188 0.0 
1.14422 0.0469301 0.0 
0.996643 -0.0121403 0.0 
1.07137 0.00108438 0.0 
1.0728 0.000789197 0.0 
1.03507 0.0424892 0.0 
1.07416 -0.00941023 0.0 
1.00027 0.00129348 0.0 
1.04726 -0.0156846 0.0 
1.12925 0.00507133 0.0 
0.972963 -0.00295693 0.0 
1.00615 0.0127527 0.0 
1.07191 -0.0265977 0.0 
1.04851 0.00649197 0.0 
1.06807 0.00183833 0.0 
0.93048 -0.00834854 0.0 
1.06301 0.00633143 0.0 
0.975587 0.0283272 0.0 
1.08551 -0.0571773 0.0 
1.1519 0.021348 0.0 
1.0808 -0.00942375 0.0 
1.08287 -0.0117396 0.0 
1.05026 0.00679746 0.0 
1.07955 0.0110834 0.0 
1.04859 -0.037917 0.0 
1.06725 0.0017471 0.0 
1.07161 0.00252042 0.0 
1.06762 -0.0945246 0.0 
0.951464 0.144836 0.0 
1.09054 -0.0149417 0.0 
1.00325 0.0122962 0.0 
1.05671 -0.0345686 0.0 
1.07597 0.000954372 0.0 
0.513267 0.00570741 0.0 
1.02799 0.00946166 0.0 
0.996848 -0.0170415 0.0 
1.04543 -0.0846903 0.0 
0.899764 0.0193618 0.0 
1.07295 -0.0124771 0.0 
1.09385 -0.0209906 0.0 
1.06155 -0.00322005 0.0 
1.09287 0.0141594 0.0 
1.0678 0 0.0 
0.881955 0.022778 0.0 
1.08905 0.0351106 0.0 
0.590328 0.0279621 0.0 
1.06826 0 0.0 
1.07194 -0.0178551 0.0 
1.06524 -0.0215386 0.0 
0.777886 0.00642039 0.0 
0.94957 0.0951436 0.0 
0.962097 -0.0580814 0.0 
2.16407e-34 0 0.0 
1.10474 0.0154755 0.0 
0.110466 -0.0146597 0.0 
0.966145 0.0102825 0.0 
1.00009 -0.0211743 0.0 
1.07667 -0.0112488 0.0 
0.989683 0.0392183 0.0 
1.06273 0.000160267 0.0 
1.04268 -0.0322763 0.0 
1.07162 0.00287888 0.0 
1.0773 -0.0042972 0.0 
0.981277 -0.0122996 0.0 
0.990249 0.0149097 0.0 
1.01705 0.0278822 0.0 
1.08818 -0.0302037 0.0 
1.06873 0.000180073 0.0 
1.08399 -0.00762176 0.0 
1.06405 0.00123595 0.0 
0.960412 -0.0208359 0.0 
0.119701 -0.00187742 0.0 
0.914962 -0.0147097 0.0 
1.07792 -0.0110032 0.0 
0.989605 -0.0053667 0.0 
1.05275 -0.000657928 0.0 
1.11054 -0.00634775 0.0 
1.00035 0.000940193 0.0 
1.08662 -0.0417837 0.0 
0.0204212 -0.00245191 0.0 
1.08272 -0.00310307 0.0 
1.02973 -0.0599091 0.0 
1.11471 0.0118579 0.0 
0.893709 0.258494 0.0 
1.05534 -0.0778915 0.0 
0.505817 0.00932272 0.0 
0.0857113 0.00492712 0.0 
1.08842 -0.0495228 0.0 
1.04559 0.0465098 0.0 
1.07615 0.000363131 0.0 
1.06688 -0.0311394 0.0 
1.07634 -0.014379 0.0 
1.02294 0.010281 0.0 
1.05296 0.00255085 0.0 
1.05036 -0.0224149 0.0 
1.00468 -0.111742 0.0 
1.09734 0.106114 0.0 
1.11404 0.0286273 0.0 
1.06942 0 0.0 
1.07033 -5.42032e-05 0.0 
1.061 0.00673068 0.0 
1.0287 0.0108579 0.0 
1.0635 0.000618637 0.0 
0.825422 -0.0304971 0.0 
1.06895 -0.000522521 0.0 
1.07169 0.000751467 0.0 
0.965467 0.004065 0.0 
1.03632 0.0641239 0.0 
1.06239 0.000315407 0.0 
0.987124 0.00481864 0.0 
1.07932 -0.0540856 0.0 
1.06739 0.00168121 0.0 
0.978834 -0.128196 0.0 
0.0847053 0.000749023 0.0 
0.986745 -0.0136901 0.0 
1.0325 0.119093 0.0 
1.14683 0.0563312 0.0 
1.06442 0.000967963 0.0 
1.08272 -0.0341252 0.0 
1.06474 0.000611084 0.0 
0.988073 0.0135074 0.0 
1.0197 -0.0416076 0.0 
0.851315 0.0241496 0.0 
0.905797 -0.0172769 0.0 
1.06872 0.00198177 0.0 
1.07015 -0.000400634 0.0 
0.98592 -0.055133 0.0 
0.840626 -0.0329934 0.0 
1.11509 -0.0105133 0.0 
1.068 0.00510874 0.0 
1.05858 -0.000972883 0.0 
1.01549 -0.0367537 0.0 
0.25891 0.00308696 0.0 
1.00144 -0.00111235 0.0 
0.979116 -0.0057221 0.0 
0.961052 0.0116859 0.0 
1.00825 0.0093465 0.0 
1.08072 -0.00164416 0.0 
0.288803 -0.00409589 0.0 
1.00745 -0.00377106 0.0 
1.06044 -0.00125039 0.0 
1.07162 0.0571614 0.0 
1.0757 -0.00421679 0.0 
0.990163 -0.00710865 0.0 
1.03264 0.0133748 0.0 
1.03839 -0.0388775 0.0 
1.05476 -0.0154498 0.0 
1.04069 -0.0128171 0.0 
1.04635 -0.0288405 0.0 
1.0676 0.00169277 0.0 
1.06828 -0.0760733 0.0 
1.0722 0.00286534 0.0 
1.04728 -0.0781422 0.0 
1.06356 0.000431052 0.0 
0.84754 0.0212141 0.0 
0.977145 -0.00347859 0.0 
0.0107868 0.00165634 0.0 
1.06673 0.00155655 0.0 
1.03027 0.0403863 0.0 
1.07022 -0.00737301 0.0 
1.00468 0.000474053 0.0 
1.00585 -0.00261293 0.0 
1.067 0.00163952 0.0 
1.06838 0.00187162 0.0 
1.06402 0.000336496 0.0 
1.03581 -0.00899159 0.0 
1.05833 -0.045756 0.0 
1.06366 -0.00342178 0.0 
1.03913 -0.00695921 0.0 
1.04767 0.0637443 0.0 
1.10223 -0.000693501 0.0 
1.09659 0.0108284 0.0 
1.03609 -0.0380633 0.0 
1.06454 0.000429568 0.0 
2.16407e-34 0 0.0 
1.04935 -0.00474135 0.0 
0.707162 -0.00802652 0.0 
1.00086 -0.00104203 0.0 
1.06679 0.00177334 0.0 
1.0611 0.000257528 0.0 
1.09215 -0.0176264 0.0 
0.867294 -0.104854 0.0 
1.05939 -0.00599471 0.0 
1.06293 0.000497943 0.0 
1.07118 0.0464665 0.0 
1.06892 -0.00818192 0.0 
1.0619 -0.00509946 0.0 
1.0655 -0.00364046 0.0 
1.12953 -0.0036729 0.0 
1.00298 -0.00260566 0.0 
0.999684 -0.00075729 0.0 
1.04241 -0.00862286 0.0 
1.07358 -0.00652582 0.0 
0.99925 -0.001331 0.0 
1.06316 0.000551341 0.0 
1.00202 -0.0014721 0.0 
0.132576 -0.0288025 0.0 
1.05892 0.00654863 0.0 
0.0672406 -0.00854683 0.0 
1.06191 0.000384957 0.0 
1.06893 0.00189328 0.0 
1.07607 -0.0562841 0.0 
1.05563 -0.00589765 0.0 
1.05156 -0.000799848 0.0 
1.06312 0.000645504 0.0 
1.04656 -0.00924727 0.0 
1.0621 0.000446654 0.0 
0.930709 -0.0364156 0.0 
1.02943 -0.00984585 0.0 
1.06472 0.00036215 0.0 
1.05879 -0.00147836 0.0 
1.0451 -0.00121161 0.0 
1.00414 0.00233094 0.0 
0.953341 0.0165038 0.0 
1.06506 0 0.0 
1.0325 -0.0076986 0.0 
1.07127 -0.0129826 0.0 
1.0682 -0.00162433 0.0 
1.02614 -0.006793 0.0 
1.0599 -0.00121747 0.0 
1.05114 -0.0072807 0.0 
0.57843 0.000807812 0.0 
1.01091 -0.00432986 0.0 
1.01327 -0.00544848 0.0 
1.06294 -0.000546129 0.0 
1.04315 -0.00406646 0.0 
1.00767 0.00258189 0.0 
1.06077 0.000345984 0.0 
1.00798 0.00851678 0.0 
1.07081 0.00418463 0.0 
1.06177 0.000396074 0.0 
0.999911 0.00194936 0.0 
1.06498 -0.00170698 0.0 
1.066 0.00134813 0.0 
1.0984 0.032122 0.0 
1.05778 0 0.0 
1.06617 -0.0017167 0.0 
1.06147 0.000389286 0.0 
1.06891 -0.00104067 0.0 
1.12123 0.0248695 0.0 
1.05764 0.0562635 0.0 
1.07368 -0.00417868 0.0 
1.01591 -0.00770764 0.0 
1.0623 0.000361139 0.0 
1.06368 0.000628324 0.0 
1.06022 0.000154542 0.0 
1.0464 -0.00478586 0.0 
1.07571 0.0628149 0.0 
1.0671 -0.00344713 0.0 
0.999551 0.000171922 0.0 
1.0001 0.00185318 0.0 
1.09125 -0.0114011 0.0 
1.00424 -0.00315715 0.0 
1.04556 0.0167209 0.0 
1.07976 0.0290585 0.0 
1.07224 0.000362036 0.0 
1.00874 -0.00494898 0.0 
1.15935 0.0627254 0.0 
1.05123 0.0165682 0.0 
0.55995 0.00399647 0.0 
1.06093 0.000206584 0.0 
1.07894 -0.0144648 0.0 
1.09751 0.00644881 0.0 
1.05911 -0.000907751 0.0 
0.980222 -0.00333749 0.0 
1.02741 -0.0018872 0.0 
1.02007 0.0063569 0.0 
1.06159 0.000384856 0.0 
1.003 0.0025347 0.0 
1.02621 0.00380359 0.0 
0.91307 0.00364231 0.0 
1.00213 0.00208124 0.0 
0.858712 -0.00255422 0.0 
1.00395 -0.0174243 0.0 
1.06596 0.00113168 0.0 
1.08287 0.000721344 0.0 
1.03268 0.00187753 0.0 
0.85945 0.00233522 0.0 
1.05719 -0.000583182 0.0 
0.999696 -0.00129169 0.0 
1.0825 0.00567992 0.0 
1.05683 0.0187206 0.0 
1.0623 -0.10976 0.0 
0.860538 0.00194267 0.0 
0.929986 0.0196094 0.0 
1.05291 -0.00040514 0.0 
1.06339 -0.00148085 0.0 
0.999976 3.80065e-06 0.0 
1.08634 0.0221087 0.0 
0.999971 -0.000806398 0.0 
0.999956 -0.000120697 0.0 
1.05219 -0.000613296 0.0 
1.06412 -0.00162757 0.0 
0.999756 0.00166806 0.0 
1.01349 0.0246496 0.0 
1.07964 -0.0127905 0.0 
0.865278 0.00265983 0.0 
1.0396 -0.00315657 0.0 
1.00161 0.000984583 0.0 
1.07512 0.0125839 0.0 
1.0099 0.00166089 0.0 
1.03495 0.0457991 0.0 
1.00598 0.0038099 0.0 
1.06093 0.0146386 0.0 
0.931258 0.0199413 0.0 
1.0761 -0.00298913 0.0 
1.00174 0.00285657 0.0 
1.08069 -0.00280368 0.0 
1.03892 0.0155146 0.0 
1.06177 -0.00125321 0.0 
1.08319 -0.00805765 0.0 
0.944216 0.0163298 0.0 
1.06334 -0.001899 0.0 
1.10076 -0.00504534 0.0 
0.903085 0.0159343 0.0 
0.72729 -0.0609576 0.0 
1.06982 0.0135292 0.0 
1.00139 0.00179405 0.0 
1.0745 -0.0128956 0.0 
1.01691 -0.00600441 0.0 
1.09266 -0.0065943 0.0 
1.02492 0.00828327 0.0 
1.06817 -0.00370169 0.0 
1.06486 -0.00108879 0.0 
1.07333 -0.00391091 0.0 
1.06107 -0.00159653 0.0 
1.0724 -0.00473023 0.0 
0.964361 0.0851348 0.0 
1.04397 -0.074834 0.0 
1.02355 0.00726735 0.0 
1.04443 0 0.0 
1.06535 -0.00308698 0.0 
1.06296 -0.000955329 0.0 
1.08753 -0.0101664 0.0 
1.05943 -0.000662127 0.0 
1.08332 0.00865869 0.0 
1.07278 0.0016555 0.0 
1.01576 -0.0621821 0.0 
1.06414 -0.00241383 0.0 
1.0614 -0.0024409 0.0 
1.0674 -0.0147834 0.0 
1.0262 0.00845783 0.0 
0.953092 0.0114045 0.0 
1.05368 -0.000217288 0.0 
1.03492 -0.0156345 0.0 
1.06737 -0.00205271 0.0 
1.09107 -0.0287598 0.0 
1.07431 -0.00283241 0.0 
1.07493 0.00678909 0.0 
0.847512 0.00167155 0.0 
0.995802 0.0131407 0.0 
0.994915 0.0113702 0.0 
1.08523 -0.00708349 0.0 
0.393879 -0.0729559 0.0 
1.09048 -0.011502 0.0 
1.05682 -0.000273785 0.0 
1.10992 0.0121979 0.0 
0.992256 -0.0575877 0.0 
1.07144 0.0014428 0.0 
1.07882 -0.00571735 0.0 
1.05863 -0.00148198 0.0 
1.09465 0.199967 0.0 
0.183121 0.000514678 0.0 
1.07186 -0.00312253 0.0 
1.06967 -0.00371765 0.0 
0.391512 -0.00456555 0.0 
1.10237 -0.00248231 0.0 
1.01624 0.00437648 0.0 
0.442254 0.0633096 0.0 
1.10635 -0.00455307 0.0 
0.985162 0.00580927 0.0 
1.05583 -0.00035184 0.0 
1.02408 0.01358 0.0 
1.05455 -0.000619803 0.0 
1.05208 -0.0349078 0.0 
0.947936 0.0180807 0.0 
1.0712 0.072956 0.0 
1.0622 -0.000858351 0.0 
1.09672 0.00135485 0.0 
0.960501 -0.186257 0.0 
1.07123 -0.00189702 0.0 
1.04381 -0.0227528 0.0 
1.06296 -0.0661396 0.0 
1.0611 -0.00456969 0.0 
0.936098 0.00628771 0.0 
0.846361 0.0116692 0.0 
1.05744 -0.00027155 0.0 
1.07026 -0.00236889 0.0 
0.964004 0.00935712 0.0 
0.723698 0.0026984 0.0 
0.980441 -0.036703 0.0 
0.737041 0.00391185 0.0 
1.10603 0.162209 0.0 
0.96824 -0.0477722 0.0 
1.08847 -0.0148087 0.0 
1.05487 -0.03515 0.0 
0.787816 0.00324947 0.0 
1.00078 0.00699851 0.0 
0.969517 0.0101563 0.0 
1.05313 -0.00013686 0.0 
0.999586 -0.00875368 0.0 
1.06481 -0.00244506 0.0 
1.06439 0.00115414 0.0 
1.05724 -0.0393859 0.0 
1.00075 -0.0122714 0.0 
1.07325 0.00161133 0.0 
1.04322 -0.0268184 0.0 
1.07401 -0.0731794 0.0 
1.02659 0.00388621 0.0 
1.10334 -0.0117573 0.0 
1.08983 -0.0136254 0.0 
1.078 -0.0648019 0.0 
1.07892 -0.0147436 0.0 
1.07309 -0.0251385 0.0 
1.06423 -0.00454006 0.0 
1.06615 -0.00345859 0.0 
1.0407 0.00334528 0.0 
1.00084 0.0103568 0.0 
1.07474 -0.00470129 0.0 
1.07699 -0.0131594 0.0 
0.567904 0.0165933 0.0 
0.970524 -0.0443124 0.0 
1.05417 -0.000448088 0.0 
0.446889 0.0378438 0.0 
1.0898 -0.0408146 0.0 
1.0608 0.0019138 0.0 
1.05171 -0.0702199 0.0 
1.01625 -0.0311054 0.0 
0.891542 0.0226072 0.0 
1.1026 0.00393042 0.0 
1.05959 0.00191473 0.0 
0.895633 -0.0189622 0.0 
1.08746 -0.00807493 0.0 
1.06475 -0.00580717 0.0 
1.02907 0.00908311 0.0 
1.0759 -0.0116188 0.0 
1.07566 -0.0095764 0.0 
1.08936 -0.043993 0.0 
1.01559 -0.059225 0.0 
0.812637 0.00819144 0.0 
0.792094 0.0284835 0.0 
1.05553 -0.000170245 0.0 
0.965951 0.0112064 0.0 
0.738787 -0.000393675 0.0 
1.06532 -0.00560581 0.0 
1.05761 -0.000887194 0.0 
1.05765 -0.000730337 0.0 
1.00887 0.00814652 0.0 
1.02281 -0.00601328 0.0 
1.06392 0.000705836 0.0 
1.06492 -0.0833916 0.0 
1.0554 0.045995 0.0 
1.07098 -0.00853425 0.0 
1.01782 -0.0820283 0.0 
1.07915 0.00755336 0.0 
1.10278 0.00844512 0.0 
1.05429 -0.000684168 0.0 
1.03661 -0.0223126 0.0 
1.06692 0.000932072 0.0 
1.06419 0.000816175 0.0 
0.991943 -0.01533 0.0 
1.06793 -0.00949757 0.0 
1.05311 0 0.0 
1.06353 0.00148096 0.0 
1.07533 -0.0098456 0.0 
1.10034 0.0260476 0.0 
1.04023 -0.00526078 0.0 
1.06231 0.00158396 0.0 
1.04517 0.0372021 0.0 
0.895224 0.0126411 0.0 
1.07324 -0.0101046 0.0 
1.0062 -0.0122322 0.0 
1.06848 -0.00696795 0.0 
1.02758 -0.019553 0.0 
0.865151 0.00845576 0.0 
1.10715 -0.0161307 0.0 
1.05357 -0.0243487 0.0 
1.06908 -0.00742589 0.0 
1.09629 -0.00696143 0.0 
1.01218 -0.0748686 0.0 
1.09327 -0.013685 0.0 
0.808472 0.00429529 0.0 
1.06608 -0.00582655 0.0 
1.09246 -0.010773 0.0 
0.986626 -0.121389 0.0 
1.09048 -0.0124896 0.0 
1.04109 -0.063801 0.0 
1.09337 -0.0120993 0.0 
0.745931 0.00600503 0.0 
0.974997 -0.0401895 0.0 
1.01693 0.0410139 0.0 
1.07396 0.00138883 0.0 
1.06125 -0.00402076 0.0 
1.03929 -0.0169891 0.0 
1.10329 0.0340086 0.0 
1.03221 0.0588072 0.0 
0.81094 0.00759358 0.0 
0.693062 -0.00795668 0.0 
0.812851 0.00785437 0.0 
1.04047 -0.00298652 0.0 
1.05831 -0.00138165 0.0 
0.970042 0.00891962 0.0 
1.08839 -0.0239779 0.0 
0.869249 -0.0422669 0.0 
1.02673 -0.00649156 0.0 
0.543962 -0.0114708 0.0 
1.03653 -0.0450055 0.0 
0.968961 -0.00260815 0.0 
1.05802 -0.00496354 0.0 
1.0698 -0.0731945 0.0 
1.02925 0.0316756 0.0 
1.05726 0.00728483 0.0 
1.08445 -0.0168031 0.0 
1.11359 0.0358344 0.0 
0.839631 -0.0396825 0.0 
1.00416 -0.0223068 0.0 
1.00028 -0.00690213 0.0 
1.11799 -0.0128983 0.0 
1.04098 -0.0424528 0.0 
1.06983 -0.0103724 0.0 
1.05518 -0.000403509 0.0 
0.979288 -0.00816327 0.0 
1.11042 -0.0229 0.0 
0.833418 0.0233346 0.0 
0.944058 -0.00812468 0.0 
0.401902 0.0594357 0.0 
0.966929 0.00747803 0.0 
0.780791 0.00703455 0.0 
0.96436 -0.00352166 0.0 
0.839904 -0.0769412 0.0 
1.04652 0.00490139 0.0 
1.05085 -0.00126138 0.0 
1.07612 -0.0125743 0.0 
0.875892 0.00633203 0.0 
0.875904 -0.0758276 0.0 
0.378032 -0.0540145 0.0 
0.976361 -0.0468321 0.0 
1.03986 -0.076716 0.0 
0.499659 -0.0180803 0.0 
1.0599 0.000145974 0.0 
1.05737 0.00521951 0.0 
1.08811 -0.0113539 0.0 
1.05525 -0.0947504 0.0 
0.861989 -0.00239419 0.0 
1.04869 -0.016912 0.0 
1.06844 -0.06047 0.0 
1.0142 0.0301266 0.0 
1.06531 -0.0051586 0.0 
0.340107 0.0107632 0.0 
1.00047 0.00463917 0.0 
1.06914 0.00422635 0.0 
0.957513 0.0555327 0.0 
0.99932 0.00706831 0.0 
0.969674 -0.0087947 0.0 
0.827013 0.00699403 0.0 
1.06031 -0.00176161 0.0 
0.503175 0.0756214 0.0 
0.803362 0.0167152 0.0 
0.699368 -0.0282814 0.0 
1.06537 0.00151865 0.0 
1.10642 -0.00105175 0.0 
1.07631 -0.0447263 0.0 
1.0149 -0.0330552 0.0 
0.86087 0.00704053 0.0 
1.07769 -0.0142094 0.0 
0.992482 0.00694857 0.0 
0.987241 -0.0727133 0.0 
1.06858 -0.0641081 0.0 
0.516398 0.00993427 0.0 
1.03361 0.00577084 0.0 
0.209609 0.0204329 0.0 
1.09106 0.197766 0.0 
0.966966 -0.0280396 0.0 
1.01477 0.00599439 0.0 
1.03725 -0.0283238 0.0 
0.995443 -0.0190606 0.0 
1.10764 -0.0259702 0.0 
1.05432 -0.000254211 0.0 
1.02581 -0.172833 0.0 
0.94374 -0.00779674 0.0 
0.810904 0.00606734 0.0 
0.906853 -0.00803412 0.0 
0.9744 -0.036576 0.0 
1.07861 -0.0127603 0.0 
1.08287 0.0319909 0.0 
1.07792 0.0795669 0.0 
1.07191 0.0377118 0.0 
1.06704 0.00142769 0.0 
0.75096 0.00302096 0.0 
0.979115 -0.0318367 0.0 
0.978264 0.1064 0.0 
0.783361 0.00489034 0.0 
1.09207 -0.0156243 0.0 
0.97033 0.0166756 0.0 
1.04589 -0.0535212 0.0 
1.01965 -0.0144615 0.0 
1.05456 -0.0430721 0.0 
1.06577 -0.00865354 0.0 
0.650009 0.0233717 0.0 
1.08662 0.0706992 0.0 
1.00052 0.00604289 0.0 
1.09545 0.0383399 0.0 
1.03032 0.051192 0.0 
1.07414 0.00180707 0.0 
1.084 -0.0121858 0.0 
1.12103 -0.0135938 0.0 
1.08016 -0.0584209 0.0 
0.99537 0.00880647 0.0 
1.02953 0.046024 0.0 
1.05415 -0.000266475 0.0 
1.04062 -0.0190702 0.0 
1.09157 -0.00858669 0.0 
1.05074 0.00356229 0.0 
0.98259 0.0277129 0.0 
0.53146 0.0294459 0.0 
0.981681 -0.022171 0.0 
2.16407e-34 0 0.0 
0.596415 0.0199474 0.0 
1.07994 -0.0140009 0.0 
0.992818 0.269253 0.0 
0.987738 -0.0154674 0.0 
1.09952 0.0288829 0.0 
0.958444 -0.00773887 0.0 
0.262378 -0.0317166 0.0 
1.06822 -0.00722479 0.0 
0.732174 0.025982 0.0 
0.805843 -0.00836352 0.0 
0.857891 -0.035532 0.0 
0.9702 -0.0326208 0.0 
0.848701 -0.0318639 0.0 
0.961505 -0.0439197 0.0 
0.999747 0.0118639 0.0 
1.06681 0.000498358 0.0 
0.110916 -0.0205591 0.0 
0.998331 -0.0840412 0.0 
1.07456 -0.0139072 0.0 
1.03951 0.0605581 0.0 
1.00302 -0.0624213 0.0 
0.775866 0.00484298 0.0 
0.991776 -0.0295594 0.0 
0.158194 -0.0166784 0.0 
1.0709 -0.00375522 0.0 
1.05049 -0.0625837 0.0 
0.682036 0.00648693 0.0 
0.831668 0.0162138 0.0 
1.04985 -0.017425 0.0 
1.06235 0.00138512 0.0 
1.06554 -0.068637 0.0 
0.980193 0.0322151 0.0 
0.768907 0.0235879 0.0 
0.638458 0.00552119 0.0 
1.07125 -0.00734161 0.0 
1.07675 -0.0155003 0.0 
1.02949 -0.11971 0.0 
0.067084 -0.0141397 0.0 
0.997601 0.0103634 0.0 
1.03228 0.0297288 0.0 
0.963514 0.029639 0.0 
0.999827 0.000702182 0.0 
1.0989 -0.00438935 0.0 
1.08167 -0.000331317 0.0 
1.06671 0.00103906 0.0 
0.482339 -0.0660272 0.0 
1.07379 -0.00144037 0.0 
1.06267 0 0.0 
0.907423 -0.0435185 0.0 
0.990574 0.0038047 0.0 
0.487936 -0.0206846 0.0 
0.996441 0.0335796 0.0 
1.03558 0 0.0 
1.05391 -0.000114304 0.0 
1.07315 0.00295735 0.0 
0.808956 0.271434 0.0 
1.05962 0.00171564 0.0 
0.964181 0.0942508 0.0 
1.05207 -0.0854977 0.0 
1.11427 0.0167399 0.0 
1.0159 0.025283 0.0 
1.00865 0.0447486 0.0 
1.10647 0.0270516 0.0 
1.04043 -0.00163686 0.0 
0.398875 -0.00333019 0.0 
1.10781 -0.00636876 0.0 
0.308123 -0.0292121 0.0 
1.08846 -0.0523695 0.0 
0.943963 0.0140225 0.0 
1.06284 0.0014233 0.0 
0.671513 0.0184447 0.0 
1.03391 -0.0294523 0.0 
0.978394 0.0166729 0.0 
0.999925 0.000323769 0.0 
0.968748 0.00794784 0.0 
1.08693 -0.0119396 0.0 
1.0264 0.0304779 0.0 
1.0928 -0.0178228 0.0 
1.09216 0.0404603 0.0 
1.03389 0.00280305 0.0 
1.05807 0.0657566 0.0 