<VTKFile type="UnstructuredGrid" version="0.1" byte_order="LittleEndian">
  <UnstructuredGrid>
    <Piece NumberOfPoints="17003" NumberOfCells="33813">
      <Points>
        <DataArray type = "Float64" NumberOfComponents="3" format="ascii">
0 0 0.0 
12 0 0.0 
12 4 0.0 
0 4 0.0 
3.31125 2.15063 0.0 
6.63049 0 0.0 
1.20574 0 0.0 
0 2.03118 0.0 
7.24614 2.31075 0.0 
3.67154 2.58653 0.0 
0 1.70279 0.0 
5.70597 2.89945 0.0 
11.3234 0 0.0 
3.65852 0 0.0 
3.61879 1.49573 0.0 
2.35842 2.24628 0.0 
3.14822 0 0.0 
2.55098 0 0.0 
2.75281 2.15078 0.0 
12 2.91971 0.0 
5.36637 0 0.0 
11.586 4 0.0 
5.56845 2.38784 0.0 
5.1594 0 0.0 
9.53375 4 0.0 
12 3.17166 0.0 
3.83762 0 0.0 
6.06535 0 0.0 
4.10903 0 0.0 
0.686314 4 0.0 
4.83493 0 0.0 
5.57611 0 0.0 
2.74952 1.85484 0.0 
5.69354 2.35129 0.0 
5.88083 0 0.0 
3.4128 2.29849 0.0 
6.65286 0.0917602 0.0 
4.13382 3.01328 0.0 
9.40516 0 0.0 
11.3776 4 0.0 
9.22343 4 0.0 
8.14472 0 0.0 
3.20507 1.49003 0.0 
9.57869 0 0.0 
11.6531 0 0.0 
2.46042 2.3592 0.0 
3.50831 2.73668 0.0 
9.11 0 0.0 
3.15405 1.57578 0.0 
2.11454 1.41979 0.0 
2.6985 3.05232 0.0 
10.9845 4 0.0 
3.69866 1.24698 0.0 
10.7695 4 0.0 
10.4533 4 0.0 
7.96012 4 0.0 
3.08416 0.875891 0.0 
0.327913 4 0.0 
0.86775 4 0.0 
2.97656 1.68881 0.0 
12 3.55991 0.0 
5.30908 2.97228 0.0 
2.87458 2.93032 0.0 
3.8271 1.8425 0.0 
2.25044 0.822281 0.0 
5.16045 0.620403 0.0 
1.48145 4 0.0 
10.1923 4 0.0 
3.84732 2.209 0.0 
7.76169 4 0.0 
8.14832 4 0.0 
2.48152 1.48192 0.0 
3.71976 2.43584 0.0 
1.76996 3.01065 0.0 
3.43892 2.23057 0.0 
3.23515 4 0.0 
8.9402 4 0.0 
3.63317 2.54957 0.0 
8.4675 4 0.0 
5.37906 4 0.0 
4.19574 2.66875 0.0 
3.84415 1.29747 0.0 
5.9075 4 0.0 
6.96894 4 0.0 
7.16917 4 0.0 
6.65817 4 0.0 
6.4671 4 0.0 
5.18332 4 0.0 
6.19 4 0.0 
3.0084 1.66978 0.0 
4.26718 2.23748 0.0 
4.9753 4 0.0 
4.69058 4 0.0 
3.42223 2.26389 0.0 
3.32747 0.939979 0.0 
4.19 4 0.0 
4.44 4 0.0 
3.71691 4 0.0 
4.48789 1.24674 0.0 
3.41917 4 0.0 
3.23867 1.84884 0.0 
6.08654 0.797163 0.0 
2.89103 3.50079 0.0 
5.1388 0.911912 0.0 
1.65189 4 0.0 
3.51247 2.15342 0.0 
4.28707 1.49387 0.0 
3.47226 2.71054 0.0 
3.61291 2.81603 0.0 
3.24393 2.95968 0.0 
3.06762 0.768898 0.0 
3.30111 1.43358 0.0 
3.28914 0.719533 0.0 
6.34814 0.125507 0.0 
4.12052 0.890307 0.0 
3.88182 2.60603 0.0 
4.15055 1.38651 0.0 
3.4862 1.39554 0.0 
6.75868 3.5359 0.0 
4.45867 3.15136 0.0 
3.83832 1.23879 0.0 
2.45946 1.96008 0.0 
3.48793 1.31098 0.0 
3.97327 1.50252 0.0 
4.0388 2.72114 0.0 
3.78535 1.4567 0.0 
5.2658 1.46313 0.0 
1.91318 1.01701 0.0 
2.98516 1.56743 0.0 
5.44099 3.03208 0.0 
2.44724 1.67191 0.0 
6.26275 0.741032 0.0 
6.21939 0 0.0 
5.70724 1.95019 0.0 
3.73085 1.38112 0.0 
2.59402 1.37223 0.0 
2.91581 1.37961 0.0 
2.42394 0.988738 0.0 
2.85799 1.36689 0.0 
4.71864 2.48715 0.0 
2.4371 1.63704 0.0 
4.00762 0.967481 0.0 
2.88853 3.68533 0.0 
4.41028 0.959838 0.0 
2.2488 0.900722 0.0 
4.92584 1.38849 0.0 
4.98658 2.82044 0.0 
3.72966 1.50733 0.0 
2.34653 2.88666 0.0 
3.76294 1.39054 0.0 
2.64398 2.9918 0.0 
3.30481 3.07849 0.0 
4.24578 2.09451 0.0 
3.14763 2.47857 0.0 
6.05173 2.45196 0.0 
5.05169 0.63389 0.0 
4.83469 0.740312 0.0 
2.28214 3.01394 0.0 
5.03373 3.01812 0.0 
0.265594 3.47663 0.0 
5.22806 2.50697 0.0 
3.46424 2.54101 0.0 
1.75199 1.77729 0.0 
4.62395 1.4469 0.0 
3.43045 0.937791 0.0 
5.54351 1.30472 0.0 
6.17279 0.708687 0.0 
7.41163 2.40483 0.0 
4.66104 1.30226 0.0 
1.8054 2.23585 0.0 
3.23852 1.42252 0.0 
3.28971 2.39529 0.0 
3.96082 0.989551 0.0 
4.48822 2.92471 0.0 
4.11403 1.40907 0.0 
3.26133 3.42357 0.0 
2.91986 0.919509 0.0 
6.51711 0.73752 0.0 
5.25122 0.887021 0.0 
2.84985 1.60325 0.0 
2.38044 2.26611 0.0 
4.22488 2.74208 0.0 
4.81331 1.44441 0.0 
3.08307 0.902391 0.0 
4.61265 0.97698 0.0 
4.49887 1.82464 0.0 
5.0853 1.38789 0.0 
5.45273 2.40097 0.0 
2.75092 1.45746 0.0 
3.82308 1.56081 0.0 
5.07617 2.74371 0.0 
3.66421 1.29841 0.0 
6.87113 3.09886 0.0 
3.36334 3.07972 0.0 
4.28938 0 0.0 
3.91776 1.56855 0.0 
3.02156 2.95758 0.0 
3.56146 1.65412 0.0 
5.72933 0 0.0 
4.75938 2.56746 0.0 
4.62804 2.48271 0.0 
6.95578 1.78696 0.0 
2.2549 2.27212 0.0 
2.24442 1.61492 0.0 
3.34748 1.83866 0.0 
3.38159 2.86744 0.0 
3.16334 1.97743 0.0 
5.91728 1.4874 0.0 
1.87567 1.04791 0.0 
3.88387 0.858818 0.0 
1.85558 2.4796 0.0 
8.84817 0.137015 0.0 
2.83194 0.800237 0.0 
5.27076 0.951568 0.0 
4.62008 3.52528 0.0 
1.73428 1.55135 0.0 
4.18841 1.48578 0.0 
1.87635 3.07646 0.0 
3.53338 1.41319 0.0 
5.53927 0.0876901 0.0 
3.82855 1.35929 0.0 
8.12241 0.823285 0.0 
2.00014 1.70031 0.0 
3.10602 1.86304 0.0 
6.03043 2.31667 0.0 
4.76945 2.9549 0.0 
12 2.70513 0.0 
11.0063 3.28992 0.0 
3.70886 2.66685 0.0 
0.280033 3.64674 0.0 
3.36623 1.27372 0.0 
3.15744 1.96115 0.0 
3.96834 1.325 0.0 
2.63119 1.23057 0.0 
3.43166 2.72475 0.0 
2.47331 2.15913 0.0 
2.83976 1.42691 0.0 
2.90993 1.85558 0.0 
2.98673 1.90421 0.0 
3.31079 1.36164 0.0 
2.43607 2.99601 0.0 
4.56139 0.952503 0.0 
3.2877 0.938416 0.0 
4.83817 2.71384 0.0 
4.98687 1.404 0.0 
8.06323 1.15011 0.0 
4.7067 2.43748 0.0 
2.54596 1.61645 0.0 
2.76441 2.51322 0.0 
3.23327 2.73138 0.0 
4.98126 0 0.0 
4.84245 0.350815 0.0 
4.4917 1.33309 0.0 
4.55124 1.41441 0.0 
8.48752 0.481886 0.0 
3.01758 1.73858 0.0 
4.48535 0.129966 0.0 
4.93767 0.628072 0.0 
1.82659 1.89944 0.0 
2.37731 2.78058 0.0 
9.25258 0.293929 0.0 
8.80051 1.43264 0.0 
3.19057 1.32326 0.0 
6.43365 0.696574 0.0 
2.49614 1.70224 0.0 
2.98282 2.04353 0.0 
1.69305 1.42876 0.0 
2.48798 2.474 0.0 
3.10267 2.45687 0.0 
7.96746 0.646464 0.0 
3.79321 2.31442 0.0 
7.53284 0.361424 0.0 
1.43669 2.18658 0.0 
2.44396 1.03956 0.0 
4.21599 1.58602 0.0 
2.20417 1.9026 0.0 
5.95272 0.726552 0.0 
4.71487 0.307943 0.0 
3.09859 1.64241 0.0 
2.92165 1.77765 0.0 
3.70879 2.56829 0.0 
4.32948 1.32578 0.0 
7.30701 3.66885 0.0 
2.34566 1.00261 0.0 
3.04134 1.85164 0.0 
0.789817 0.247013 0.0 
1.67968 1.68344 0.0 
1.87428 1.98508 0.0 
5.52183 1.41846 0.0 
4.26697 1.09601 0.0 
3.10246 1.82933 0.0 
1.53498 0.25461 0.0 
6.75529 3.68909 0.0 
2.71707 2.85629 0.0 
4.7569 3.54618 0.0 
7.41576 2.53348 0.0 
2.12844 3.60395 0.0 
2.73978 0.921764 0.0 
5.17196 2.53299 0.0 
5.61334 2.53041 0.0 
2.92291 0.738815 0.0 
6.34243 0.684549 0.0 
2.94448 1.46685 0.0 
5.1636 0.968222 0.0 
2.77812 1.40938 0.0 
8.29543 0.319127 0.0 
4.56563 1.59385 0.0 
1.69125 1.7393 0.0 
2.86112 2.08407 0.0 
6.72314 0.702013 0.0 
2.20348 3.01482 0.0 
5.39104 3.09703 0.0 
3.70182 1.5048 0.0 
1.39192 0.216016 0.0 
6.61135 0.713688 0.0 
6.05951 0.7039 0.0 
7.91096 0.224197 0.0 
2.70716 0.257823 0.0 
3.37866 1.50127 0.0 
3.81289 0.209824 0.0 
2.81425 0.205663 0.0 
2.48105 2.81237 0.0 
3.69411 2.85562 0.0 
3.45273 3.01767 0.0 
2.70002 0.909173 0.0 
7.59744 0.260636 0.0 
2.84856 2.08089 0.0 
7.04204 2.75938 0.0 
6.10382 2.03926 0.0 
0.650012 0.309279 0.0 
6.73649 0.794676 0.0 
10.6421 0.308692 0.0 
3.6943 1.34198 0.0 
2.6914 1.87352 0.0 
3.5479 0.254663 0.0 
8.89915 0.428425 0.0 
2.75301 2.96347 0.0 
3.88003 0.53697 0.0 
3.68104 0.252709 0.0 
3.92372 0.259094 0.0 
3.36517 2.27636 0.0 
1.10814 0.332739 0.0 
0.394485 1.23034 0.0 
2.91402 0.250875 0.0 
4.07758 0.69963 0.0 
0.596717 1.23776 0.0 
8.73625 0.457035 0.0 
0.917103 0.252598 0.0 
3.36793 1.87456 0.0 
4.96565 1.29095 0.0 
3.37076 1.77459 0.0 
9.83551 0.404337 0.0 
5.85919 0.691463 0.0 
3.14299 1.32243 0.0 
3.39165 0.220415 0.0 
11.7949 3.27291 0.0 
8.8494 0.54383 0.0 
3.04537 0.27491 0.0 
9.69154 0.450843 0.0 
3.39184 1.58327 0.0 
2.50676 0.289363 0.0 
7.46048 0.211355 0.0 
7.48513 3.43329 0.0 
11.6879 3.08388 0.0 
0.890656 3.76682 0.0 
4.60783 1.50949 0.0 
3.97884 0 0.0 
2.60272 0.227531 0.0 
5.10979 2.69181 0.0 
4.24998 0.221305 0.0 
2.39232 0.21502 0.0 
6.90571 3.66977 0.0 
3.21267 0.238207 0.0 
4.98527 1.86591 0.0 
1.75028 0.228559 0.0 
1.8807 0.249796 0.0 
3.87232 1.41602 0.0 
2.9496 0.128235 0.0 
1.16226 3.82604 0.0 
11.16 0.430166 0.0 
5.74017 1.41448 0.0 
4.28498 1.31755 0.0 
10.0095 0.428125 0.0 
0.262627 2.61564 0.0 
3.94904 0.13236 0.0 
7.06636 0.680358 0.0 
3.1264 2.8846 0.0 
7.44289 4 0.0 
4.04704 0.15642 0.0 
10.3408 0.445134 0.0 
4.39524 0.204203 0.0 
3.2833 2.6629 0.0 
2.57878 2.88996 0.0 
4.23851 0.688576 0.0 
2.01914 0.304933 0.0 
9.38361 0.345573 0.0 
8.33352 0.467301 0.0 
11.6514 0.195875 0.0 
3.05823 0.152856 0.0 
2.73627 2.79644 0.0 
4.04317 0.295716 0.0 
0.347975 1.63008 0.0 
0.255571 3.0612 0.0 
4.14323 2.85359 0.0 
1.2662 0.316433 0.0 
2.43142 3.54418 0.0 
2.98289 3.11327 0.0 
4.81203 0.65143 0.0 
1.63898 0.294117 0.0 
3.09124 2.37942 0.0 
2.55589 3.54414 0.0 
3.47887 1.66187 0.0 
10.7931 0.252091 0.0 
3.79061 0.946112 0.0 
3.55567 2.99846 0.0 
7.09391 3.72692 0.0 
11.555 2.65915 0.0 
11.7998 2.90055 0.0 
1.74209 3.76205 0.0 
10.1946 0.430156 0.0 
0.779878 3.69685 0.0 
7.98943 1.32 0.0 
11.6807 1.65199 0.0 
0.664736 3.69909 0.0 
11.712 2.20853 0.0 
5.36273 2.40544 0.0 
7.00325 0.562786 0.0 
3.81464 3.56929 0.0 
11.6929 1.16759 0.0 
11.6509 1.86034 0.0 
7.7823 3.74399 0.0 
0.496807 1.07067 0.0 
3.49494 3.47672 0.0 
2.66935 3.47409 0.0 
2.79082 1.7006 0.0 
11.8092 1.86183 0.0 
4.28347 1.5346 0.0 
11.791 3.51464 0.0 
3.83395 0.0991031 0.0 
0.0934696 1.5635 0.0 
3.15444 3.11843 0.0 
0.309267 0.88703 0.0 
0.137737 1.42097 0.0 
12 3.37387 0.0 
6.0211 3.73816 0.0 
0.278215 2.31216 0.0 
1.76045 3.07356 0.0 
4.68444 2.85224 0.0 
11.3915 1.82163 0.0 
2.83255 0.0997094 0.0 
0.56879 3.83355 0.0 
3.13302 3.47069 0.0 
1.29242 3.90816 0.0 
2.29444 2.96875 0.0 
1.06192 3.69815 0.0 
2.77884 3.55958 0.0 
4.06499 1.53802 0.0 
4.67942 3.67604 0.0 
0.627391 3.53979 0.0 
4.26602 3.57317 0.0 
2.28251 3.56602 0.0 
6.44051 3.7423 0.0 
4.36928 3.12652 0.0 
2.01297 2.00881 0.0 
6.17091 3.66445 0.0 
3.80124 2.83024 0.0 
5.06278 1.55675 0.0 
3.86281 2.06913 0.0 
2.99475 3.51733 0.0 
0.544501 3.67116 0.0 
4.98422 2.75406 0.0 
7.36162 2.61171 0.0 
3.98295 2.96636 0.0 
1.9033 3.72469 0.0 
5.51955 3.52331 0.0 
5.89107 3.83813 0.0 
4.96704 3.57728 0.0 
6.63902 3.62809 0.0 
5.07911 3.47666 0.0 
2.21555 2.32198 0.0 
2.75883 1.37612 0.0 
6.02207 1.37237 0.0 
2.99635 0 0.0 
[...]
<PointData>
  <DataArray type = "Float64" Name="Vitesse" NumberOfComponents="3" format="ascii">
1 0 0.0 
1.12221 0 0.0 
1.06345 0 0.0 
1 0 0.0 
0.489802 -0.0406232 0.0 
1.13992 0 0.0 
0.9953 0 0.0 
1 0 0.0 
0.912386 -0.020565 0.0 
1.23946 -0.0233354 0.0 
1 0 0.0 
1.11839 -0.0267734 0.0 
1.12338 0 0.0 
1.1007 0 0.0 
1.1118 -0.163204 0.0 
1.01169 0.298874 0.0 
1.06012 0 0.0 
1.01846 0 0.0 
0.701026 0.0879481 0.0 
1.06299 -0.00327145 0.0 
1.14872 0 0.0 
1.06431 0 0.0 
1.00578 -0.045659 0.0 
1.149 0 0.0 
1.0691 0 0.0 
1.07021 -0.00155212 0.0 
1.113 0 0.0 
1.14429 0 0.0 
1.1282 0 0.0 
1.00695 0 0.0 
1.1476 0 0.0 
1.14773 0 0.0 
0.62118 -0.105284 0.0 
0.970913 -0.0434459 0.0 
1.14568 0 0.0 
1.04742 -0.0375327 0.0 
1.13968 0.000665097 0.0 
1.1782 -0.0242829 0.0 
1.12719 0 0.0 
1.06469 0 0.0 
1.0702 0 0.0 
1.13139 0 0.0 
0.989046 -0.245714 0.0 
1.12673 0 0.0 
1.12283 0 0.0 
1.11711 0.279797 0.0 
1.23246 0.00379032 0.0 
1.12804 0 0.0 
0.926489 -0.254536 0.0 
0.921432 0.0055816 0.0 
1.14881 0.0760789 0.0 
1.0654 0 0.0 
1.16296 -0.120724 0.0 
1.06584 0 0.0 
1.06652 0 0.0 
1.07676 0 0.0 
1.03679 -0.0854212 0.0 
1.00159 0 0.0 
1.01143 0 0.0 
0.824184 -0.213479 0.0 
1.06627 -0.000687907 0.0 
1.1292 -0.029667 0.0 
1.18197 0.0766779 0.0 
-0.0320288 -0.0229562 0.0 
0.978293 -0.02357 0.0 
1.15048 0.00147706 0.0 
1.03485 0 0.0 
1.06718 0 0.0 
0.740678 -0.0817314 0.0 
1.07827 0 0.0 
1.07552 0 0.0 
0.880195 -0.0540467 0.0 
1.20017 -0.0468731 0.0 
1.04291 0.0653637 0.0 
0.819472 -0.051096 0.0 
1.14158 0 0.0 
1.07135 0 0.0 
1.24432 -0.022735 0.0 
1.07365 0 0.0 
1.11691 0 0.0 
1.19146 -0.0469158 0.0 
1.18012 -0.0923136 0.0 
1.10418 0 0.0 
1.08626 0 0.0 
1.08388 0 0.0 
1.09051 0 0.0 
1.09353 0 0.0 
1.12216 0 0.0 
1.09846 0 0.0 
0.841558 -0.221362 0.0 
0.819508 -0.0851774 0.0 
1.12785 0 0.0 
1.13558 0 0.0 
0.93986 -0.0453316 0.0 
1.07266 -0.0999737 0.0 
1.14697 0 0.0 
1.14174 0 0.0 
1.15034 0 0.0 
1.15016 -0.00525917 0.0 
1.14667 0 0.0 
0.0323595 -0.00941291 0.0 
1.13949 0.00697906 0.0 
1.13713 0.029012 0.0 
1.151 0.00463279 0.0 
1.0443 0 0.0 
0.533158 -0.0542824 0.0 
0.884629 0.0169205 0.0 
1.23769 0.00703482 0.0 
1.2181 -0.00374709 0.0 
1.20239 0.0346319 0.0 
1.03976 -0.0709061 0.0 
1.04622 -0.238657 0.0 
1.06854 -0.068452 0.0 
1.14193 0.000975252 0.0 
1.15382 -0.0393168 0.0 
1.21939 -0.0388671 0.0 
1.10867 -0.0222284 0.0 
1.13067 -0.206075 0.0 
1.09154 -0.00650213 0.0 
1.15793 -0.024643 0.0 
1.17541 -0.091146 0.0 
0.513333 0.122921 0.0 
1.12495 -0.177087 0.0 
0.946149 -0.0214286 0.0 
1.20168 -0.0376654 0.0 
1.11416 -0.0938609 0.0 
0.860389 0.0295645 0.0 
0.967216 -0.00264609 0.0 
0.902432 -0.205712 0.0 
1.12427 -0.0263585 0.0 
0.818999 -0.0302478 0.0 
1.1386 0.00620526 0.0 
1.14307 0 0.0 
0.457082 -0.0219074 0.0 
1.17318 -0.124585 0.0 
0.909534 -0.0793479 0.0 
0.943779 -0.151263 0.0 
0.967022 -0.0409498 0.0 
0.937023 -0.136757 0.0 
1.11419 -0.0620317 0.0 
0.83388 -0.0308624 0.0 
1.1551 -0.0524018 0.0 
1.13024 0.0177395 0.0 
1.16189 -0.0195457 0.0 
0.972197 -0.0244843 0.0 
0.996398 0.0250441 0.0 
1.14298 -0.0390139 0.0 
1.04437 -0.0975519 0.0 
1.10502 0.108119 0.0 
1.16922 -0.113458 0.0 
1.14652 0.0867326 0.0 
1.18961 0.0259578 0.0 
0.454422 -0.073182 0.0 
1.2906 0.055501 0.0 
1.03571 -0.03347 0.0 
1.15132 0.000166863 0.0 
1.15369 -0.00335643 0.0 
1.09509 0.0882123 0.0 
1.13814 -0.0306284 0.0 
1.0009 0.0039234 0.0 
1.09276 -0.0493239 0.0 
1.26024 -0.00183801 0.0 
0.950084 0.0587586 0.0 
0.934252 0.025071 0.0 
1.08966 -0.0972686 0.0 
1.04243 0.0208177 0.0 
1.13992 0.00599601 0.0 
0.977047 -0.017797 0.0 
1.10857 0.00893917 0.0 
0.982501 0.10344 0.0 
1.02233 -0.226602 0.0 
1.2494 0.00917693 0.0 
1.1546 -0.0582836 0.0 
1.1647 -0.0353177 0.0 
1.08968 -0.023269 0.0 
1.15969 0.018855 0.0 
1.0122 -0.0817054 0.0 
1.13636 0.00578043 0.0 
1.14935 0.00558013 0.0 
0.866437 -0.171512 0.0 
1.03425 0.303604 0.0 
1.18746 -0.0421883 0.0 
0.919474 0.0283021 0.0 
1.03523 -0.0891137 0.0 
1.1605 -0.00859796 0.0 
0.156644 -0.0037081 0.0 
0.982911 0.025722 0.0 
1.02025 -0.048446 0.0 
0.8995 -0.123513 0.0 
0.819409 -0.0321442 0.0 
1.13857 -0.0411931 0.0 
1.1652 -0.136171 0.0 
1.09561 -0.0115593 0.0 
1.19058 0.0212113 0.0 
1.13582 0 0.0 
0.747687 -0.00725293 0.0 
1.19169 0.0587141 0.0 
0.51595 -0.0655853 0.0 
1.14673 0 0.0 
1.13927 -0.0555105 0.0 
1.11946 -0.0640329 0.0 
0.561001 0.00184228 0.0 
0.997353 0.231471 0.0 
0.873485 0.0158997 0.0 
-1.24808e-63 0 0.0 
1.21661 0.0208258 0.0 
0.000345901 0.00562326 0.0 
0.813966 0.0240936 0.0 
0.966487 6.67314e-06 0.0 
1.13913 -0.0568899 0.0 
1.01332 0.109051 0.0 
1.12864 0.000439051 0.0 
1.01201 -0.0628131 0.0 
1.14808 0.00693932 0.0 
1.14251 -0.0129614 0.0 
0.95208 0.0356142 0.0 
0.925469 0.00597897 0.0 
1.05282 0.0657824 0.0 
1.146 -0.198231 0.0 
1.14794 0.000462665 0.0 
1.175 -0.0954323 0.0 
1.12158 0.00380962 0.0 
0.91409 0.0539616 0.0 
0.178855 -0.0426091 0.0 
0.930187 -0.036928 0.0 
1.15031 -0.0345459 0.0 
1.03185 -0.00621325 0.0 
1.07134 -0.00140403 0.0 
1.23005 -0.020459 0.0 
1.00106 0.0028005 0.0 
1.08292 -0.176594 0.0 
-0.00013987 0.00407902 0.0 
1.17418 -0.0642345 0.0 
0.941275 -0.0786081 0.0 
1.23687 0.0125519 0.0 
1.01725 0.479873 0.0 
0.919423 -0.141772 0.0 
0.483674 -0.134244 0.0 
0.140378 -0.0412153 0.0 
1.06035 -0.208748 0.0 
1.11664 0.092008 0.0 
1.16052 -0.0113109 0.0 
1.06601 -0.0998451 0.0 
1.1492 -0.0457842 0.0 
0.969648 0.0265608 0.0 
1.05757 0.00803877 0.0 
1.08598 -0.0658221 0.0 
0.835444 -0.070995 0.0 
1.2446 0.167658 0.0 
1.23804 0.0406636 0.0 
1.14844 0 0.0 
1.14917 -0.002833 0.0 
1.10483 0.00364967 0.0 
1.00085 0.0181319 0.0 
1.12835 0.00174763 0.0 
0.743124 -0.20751 0.0 
1.14214 -0.00333584 0.0 
1.15182 -0.00170311 0.0 
0.946126 0.0779501 0.0 
1.11091 0.127888 0.0 
1.127 0.000831521 0.0 
0.873754 0.00965905 0.0 
1.02217 -0.18555 0.0 
1.13768 0.00553676 0.0 
0.800386 -0.0481953 0.0 
0.0124755 -0.000283171 0.0 
0.958389 0.0259792 0.0 
1.14131 0.222001 0.0 
1.29626 0.0665163 0.0 
1.12839 0.00287303 0.0 
1.02114 -0.0724987 0.0 
1.13328 0.00190712 0.0 
0.989019 0.0617002 0.0 
0.961783 -0.0444542 0.0 
0.624036 0.0261512 0.0 
0.852746 0.118431 0.0 
1.14192 0.00628327 0.0 
1.14774 -0.00411592 0.0 
0.863537 -0.242292 0.0 
0.703867 -0.18374 0.0 
1.23665 -0.0287071 0.0 
1.13152 -0.0101322 0.0 
1.08382 -0.00341487 0.0 
0.963826 -0.0337538 0.0 
0.348044 -0.0968258 0.0 
0.997266 0.00141336 0.0 
0.956164 0.0467835 0.0 
0.94694 0.0940359 0.0 
0.918877 0.0262491 0.0 
1.16959 -0.0295798 0.0 
0.364129 -0.0998105 0.0 
0.993498 -0.000271247 0.0 
1.09031 -0.0043709 0.0 
1.17025 0.101853 0.0 
1.138 -0.0127733 0.0 
1.04102 -0.0156823 0.0 
1.07609 0.0287782 0.0 
0.992937 -0.0672492 0.0 
1.10524 -0.0492931 0.0 
1.08607 -0.0398414 0.0 
1.02503 -0.0615142 0.0 
1.13863 0.00557102 0.0 
0.92696 -0.174689 0.0 
1.14987 0.00599661 0.0 
0.915556 -0.124614 0.0 
1.13004 0.00124903 0.0 
0.590326 0.0341806 0.0 
0.955682 0.0523517 0.0 
0.0371315 -0.00191612 0.0 
1.13523 0.00511569 0.0 
1.08507 0.0859687 0.0 
1.12485 -0.0249283 0.0 
1.06405 -0.112351 0.0 
0.994026 0.000413666 0.0 
1.13593 0.00540555 0.0 
1.1411 0.00601786 0.0 
1.13201 0.00101686 0.0 
1.02498 -0.0163304 0.0 
1.06028 -0.273879 0.0 
1.11252 -0.0138192 0.0 
1.03304 -0.0143054 0.0 
1.13078 0.122382 0.0 
1.21042 -0.00893188 0.0 
1.19788 0.0142407 0.0 
0.990769 -0.0627349 0.0 
1.13338 0.00133921 0.0 
-1.24808e-63 0 0.0 
1.09085 -0.0144411 0.0 
0.592423 -0.0267244 0.0 
0.998035 0.0016336 0.0 
1.13326 0.00586122 0.0 
1.12363 0.000593455 0.0 
1.17346 -0.13379 0.0 
0.622212 -0.0926635 0.0 
1.09301 -0.0201119 0.0 
1.12734 0.00135981 0.0 
1.16359 0.0835846 0.0 
1.1234 -0.0343256 0.0 
1.10347 -0.0185642 0.0 
1.12007 -0.015403 0.0 
0.991543 -0.0362179 0.0 
0.994891 0.0018626 0.0 
0.998618 0.00624817 0.0 
1.03968 -0.0187448 0.0 
1.14128 -0.0344066 0.0 
0.996743 0.00932017 0.0 
1.12763 0.00151847 0.0 
0.996443 0.00147549 0.0 
-0.00685732 0.0186253 0.0 
1.08881 0.0166392 0.0 
0.0299443 -0.0210094 0.0 
1.12479 0.000963779 0.0 
1.1433 0.00585535 0.0 
1.00813 -0.179298 0.0 
1.07983 -0.0182049 0.0 
1.07003 -0.0013615 0.0 
1.12624 0.00180994 0.0 
1.04994 -0.0220401 0.0 
1.12472 0.00114007 0.0 
0.977444 -0.31463 0.0 
1.01277 -0.0144898 0.0 
1.13428 0.00115309 0.0 
1.08454 -0.00522033 0.0 
1.0702 -0.00186825 0.0 
1.01166 0.00639421 0.0 
0.803306 0.0312233 0.0 
1.12154 0 0.0 
1.01919 -0.0128692 0.0 
1.13522 -0.0429563 0.0 
1.13562 -0.00845714 0.0 
1.00894 -0.00918814 0.0 
1.08842 -0.00427314 0.0 
1.06444 -0.0198834 0.0 
0.274448 -0.0125089 0.0 
0.994403 -0.00168851 0.0 
0.995336 -0.00312718 0.0 
1.13839 -0.0754796 0.0 
1.04396 -0.00959083 0.0 
1.02061 0.00656651 0.0 
1.12156 0.000757808 0.0 
0.916134 0.0241782 0.0 
1.14114 -0.015737 0.0 
1.12411 0.000991293 0.0 
1.00025 0.00794917 0.0 
1.12026 -0.00769469 0.0 
1.13307 0.00432939 0.0 
1.20868 0.050955 0.0 
1.08113 0 0.0 
1.12583 -0.00809528 0.0 
1.12302 0.000950774 0.0 
1.14038 -0.00605796 0.0 
1.25087 0.0325904 0.0 
1.14423 0.105347 0.0 
1.14693 -0.0254136 0.0 
0.996364 -0.0058334 0.0 
1.12636 0.00095182 0.0 
1.12903 0.00180455 0.0 
1.12242 0.000337226 0.0 
1.05215 -0.0120221 0.0 
1.18091 0.10985 0.0 
1.12725 -0.0154629 0.0 
0.998947 0.0080748 0.0 
1.00059 0.00619458 0.0 
1.18699 -0.0328524 0.0 
0.993948 0.00136804 0.0 
1.10104 0.0339858 0.0 
1.17068 0.0508174 0.0 
1.15251 -0.00421551 0.0 
0.993149 -0.00100276 0.0 
1.2862 0.0592653 0.0 
1.11113 0.0328812 0.0 
0.601292 -0.141827 0.0 
1.12363 0.000465802 0.0 
1.13794 -0.0723829 0.0 
1.19915 0.00580937 0.0 
1.08571 -0.00318126 0.0 
1.02459 -0.00474802 0.0 
1.06148 -0.00257219 0.0 
1.04921 0.0144088 0.0 
1.1236 0.000949707 0.0 
1.00871 0.00717744 0.0 
0.963496 0.0104958 0.0 
0.785659 0.00381758 0.0 
1.00624 0.00598589 0.0 
0.849087 -0.00670777 0.0 
1.0275 -0.0503623 0.0 
1.1349 0.00366114 0.0 
1.15852 -0.00119346 0.0 
1.00548 0.00456343 0.0 
0.753271 -0.000876585 0.0 
1.07904 -0.00201836 0.0 
0.997897 0.0063818 0.0 
1.16196 0.00833264 0.0 
1.12219 0.0364152 0.0 
0.81653 -0.162805 0.0 
0.756115 -0.000330884 0.0 
0.774117 0.0233168 0.0 
1.06716 -0.000877389 0.0 
1.11312 -0.00637803 0.0 
0.999933 0.00205986 0.0 
1.18024 0.0369812 0.0 
0.999254 0.00310924 0.0 
0.999858 0.00267932 0.0 
1.06852 -0.000961563 0.0 
1.10264 -0.00541848 0.0 
0.99988 0.00861996 0.0 
1.04393 0.0603552 0.0 
1.15679 -0.0396089 0.0 
0.7497 2.38251e-05 0.0 
1.03562 -0.0069282 0.0 
1.00464 0.00280742 0.0 
1.1519 0.0223631 0.0 
1.02593 0.00398977 0.0 
1.09685 0.0945979 0.0 
1.01671 0.0102188 0.0 
1.12737 0.0278183 0.0 
0.809436 0.00550824 0.0 
1.13834 -0.00878697 0.0 
1.00537 0.00846929 0.0 
1.15128 -0.00884501 0.0 
1.08852 0.0324594 0.0 
1.09482 -0.00430373 0.0 
1.16247 -0.0245152 0.0 
0.928354 0.119145 0.0 
1.10012 -0.00644903 0.0 
1.20798 -0.0178025 0.0 
0.687043 0.0323051 0.0 
0.319095 -0.0676155 0.0 
1.14256 0.0247625 0.0 
1.00415 0.00525941 0.0 
1.14294 -0.0420149 0.0 
1.06513 -0.0143978 0.0 
1.18806 -0.0209962 0.0 
1.05955 0.0182358 0.0 
1.11607 -0.0121862 0.0 
1.10494 -0.00354612 0.0 
1.13123 -0.0120444 0.0 
1.09246 -0.00558644 0.0 
1.1291 -0.0149735 0.0 
1.01088 0.206268 0.0 
0.921512 -0.116277 0.0 
0.957389 0.0213223 0.0 
1.04815 0 0.0 
1.10701 -0.010459 0.0 
1.09877 -0.00319514 0.0 
1.17621 -0.0300801 0.0 
1.08681 -0.00230454 0.0 
1.1661 0.0136103 0.0 
1.15353 0.000270718 0.0 
0.862463 -0.229056 0.0 
1.10287 -0.00820173 0.0 
1.09372 -0.00870536 0.0 
1.12861 -0.0480657 0.0 
0.971352 0.0247664 0.0 
0.786026 0.0263903 0.0 
1.06792 -0.000600539 0.0 
1.07438 -0.0479414 0.0 
1.11298 -0.00657468 0.0 
1.15117 -0.187196 0.0 
1.13333 -0.00839711 0.0 
1.14726 0.0116026 0.0 
0.76764 -0.00516296 0.0 
0.902414 0.0283826 0.0 
0.889092 0.0292916 0.0 
1.16765 -0.0218172 0.0 
-0.00972844 -0.0320505 0.0 
1.17923 -0.100487 0.0 
1.07783 -0.000940703 0.0 
1.22708 0.0140135 0.0 
0.905836 -0.0220598 0.0 
1.15112 0.00150368 0.0 
1.15716 -0.040552 0.0 
1.08403 -0.00520793 0.0 
1.29002 0.277464 0.0 
0.190319 0.00528254 0.0 
1.12662 -0.00963575 0.0 
1.12055 -0.0119749 0.0 
0.46257 -0.131075 0.0 
1.2111 -0.0125543 0.0 
1.04067 0.0101245 0.0 
0.368479 -0.000425934 0.0 
1.22077 -0.0168792 0.0 
0.861414 0.0123128 0.0 
1.07448 -0.00116887 0.0 
1.05952 0.0309526 0.0 
1.07203 -0.0015579 0.0 
1.02504 -0.0818759 0.0 
0.805516 0.0253329 0.0 
1.17854 0.128528 0.0 
1.09623 -0.00289567 0.0 
1.19695 -0.00409659 0.0 
0.727324 -0.0592154 0.0 
1.1244 -0.00572952 0.0 
1.02923 -0.0467869 0.0 
0.95819 -0.1535 0.0 
1.1004 -0.0159439 0.0 
0.772779 0.0105147 0.0 
0.851166 -0.101913 0.0 
1.07994 -0.000937996 0.0 
1.12169 -0.00734845 0.0 
0.94902 0.0872244 0.0 
0.529838 -0.00733062 0.0 
0.920746 0.0119581 0.0 
0.534588 -0.00463794 0.0 
1.29366 0.240513 0.0 
0.892593 0.0173091 0.0 
1.18209 -0.0424559 0.0 
1.03012 -0.0870836 0.0 
0.630436 -0.00328916 0.0 
0.893081 0.0176059 0.0 
0.821462 0.0251565 0.0 
1.06633 -0.000361432 0.0 
0.983964 0.00847999 0.0 
1.10506 -0.00822127 0.0 
1.12526 0.0035148 0.0 
1.02523 -0.0999096 0.0 
0.979873 0.00521611 0.0 
1.15453 -0.000697527 0.0 
1.02196 -0.0536934 0.0 
0.936494 -0.19453 0.0 
0.965169 0.0106798 0.0 
1.21624 -0.032134 0.0 
1.18482 -0.0389029 0.0 
0.970663 -0.235689 0.0 
1.15644 -0.0458958 0.0 
1.09632 -0.0953089 0.0 
1.10444 -0.0162429 0.0 
1.10973 -0.0116641 0.0 
1.01121 0.0098032 0.0 
0.900646 0.0278332 0.0 
1.14853 -0.0291838 0.0 
1.14987 -0.0418938 0.0 
0.202288 0.012815 0.0 
0.899385 0.0176131 0.0 
1.07002 -0.00116228 0.0 
0.323048 -0.0468576 0.0 
1.09465 -0.184073 0.0 
1.09452 0.00627651 0.0 
0.888067 -0.225068 0.0 
0.972953 -0.0286523 0.0 
0.714992 0.0172583 0.0 
1.21084 9.46179e-05 0.0 
1.08818 0.00628122 0.0 
0.880926 -0.0480897 0.0 
1.17462 -0.0245335 0.0 
1.10876 -0.0207071 0.0 
0.984279 0.0254602 0.0 
1.1453 -0.0374033 0.0 
1.16348 -0.119999 0.0 
1.08272 -0.1931 0.0 
0.891921 -0.248904 0.0 
0.580446 0.00764862 0.0 
0.597713 -0.00040578 0.0 
1.0735 -0.000560933 0.0 
0.815055 0.0274917 0.0 
0.60848 -0.0117263 0.0 
1.10917 -0.0199862 0.0 
1.08045 -0.00308993 0.0 
1.08061 -0.00254259 0.0 
0.916268 0.0226601 0.0 
1.07009 -0.015093 0.0 
1.12926 0.00204366 0.0 
0.903927 -0.165821 0.0 
1.13424 0.0877679 0.0 
1.12901 -0.0381341 0.0 
0.889888 -0.0757464 0.0 
1.15612 0.0124937 0.0 
1.21139 0.00856439 0.0 
1.07404 -0.00184485 0.0 
1.11885 -0.213517 0.0 
1.14011 0.00310448 0.0 
1.12929 0.00240444 0.0 
1.01913 -0.04336 0.0 
1.12286 -0.0327527 0.0 
1.06617 0 0.0 
1.11449 0.00471261 0.0 
1.14189 -0.0316588 0.0 
1.21036 0.0401607 0.0 
1.08397 -0.0143279 0.0 
1.10532 0.00510895 0.0 
1.11057 0.0746759 0.0 
0.674344 0.0246377 0.0 
1.13629 -0.0334353 0.0 
0.985021 -0.00147114 0.0 
1.11942 -0.0241182 0.0 
1.05474 -0.0578748 0.0 
0.648013 0.0104091 0.0 
1.221 -0.0412663 0.0 
1.04863 -0.0617975 0.0 
1.12164 -0.0255889 0.0 
1.19765 -0.0219254 0.0 
0.897904 -0.0628437 0.0 
1.19359 -0.0382743 0.0 
0.638877 -0.000553509 0.0 
1.11135 -0.0206482 0.0 
1.18976 -0.0311301 0.0 
0.812996 -0.053707 0.0 
1.18573 -0.0357762 0.0 
0.906454 -0.243741 0.0 
1.1929 -0.0342928 0.0 
0.513479 -0.000355041 0.0 
0.909776 0.0157222 0.0 
1.0612 0.0933001 0.0 
1.15607 -0.00287822 0.0 
1.09842 -0.0140686 0.0 
1.07847 -0.0523142 0.0 
1.2189 0.0526375 0.0 
1.10021 0.120076 0.0 
0.590338 0.0057586 0.0 
0.560194 -0.0272068 0.0 
0.585543 0.0062747 0.0 
1.11428 -0.111736 0.0 
1.08294 -0.0048273 0.0 
0.957248 0.079068 0.0 
1.16038 -0.173544 0.0 
0.844406 -0.296279 0.0 
1.07374 -0.0168403 0.0 
0.408442 -0.0399853 0.0 
0.978676 -0.0730017 0.0 
0.944675 0.0645906 0.0 
1.09869 -0.0165505 0.0 
0.913148 -0.219928 0.0 
1.07812 0.0689105 0.0 
1.09476 0.00126151 0.0 
1.17238 -0.0494875 0.0 
1.23918 0.0523856 0.0 
0.797469 -0.261087 0.0 
1.00911 -0.0628243 0.0 
0.987782 0.00764638 0.0 
1.23396 -0.0336484 0.0 
1.05995 -0.280281 0.0 
1.12133 -0.0430536 0.0 
1.0724 -0.0012715 0.0 
0.95376 0.0434137 0.0 
1.17631 -0.0544049 0.0 
0.575308 0.0318666 0.0 
1.03122 -0.183976 0.0 
0.467173 0.049731 0.0 
0.951449 0.0809496 0.0 
0.554866 0.00315785 0.0 
0.937273 0.0693765 0.0 
0.737166 0.123679 0.0 
1.0953 -0.0486053 0.0 
1.07495 -0.00246141 0.0 
1.1469 -0.0404108 0.0 
0.686478 0.00692967 0.0 
0.771156 0.0922826 0.0 
-0.0113119 -0.0412836 0.0 
0.902997 0.00789952 0.0 
0.914727 -0.109526 0.0 
0.532983 -0.167762 0.0 
1.12184 0.000357932 0.0 
1.11103 -0.0317827 0.0 
1.17866 -0.0331842 0.0 
0.819861 -0.179187 0.0 
0.854621 -0.00605654 0.0 
1.09393 -0.0526345 0.0 
0.98244 -0.162567 0.0 
1.04884 0.072092 0.0 
1.10829 -0.0183547 0.0 
0.402336 -0.120661 0.0 
1.00297 0.0155146 0.0 
1.13757 -0.0212458 0.0 
0.978593 0.164709 0.0 
1.00253 0.0262643 0.0 
0.939267 0.0559735 0.0 
0.615122 0.00514502 0.0 
1.08987 -0.00624686 0.0 
0.499532 0.0314269 0.0 
0.515547 0.0269986 0.0 
0.692039 -0.223146 0.0 
1.1262 0.00486208 0.0 
1.22011 -0.00996019 0.0 
1.04905 -0.155254 0.0 
0.968449 -0.0290952 0.0 
0.658176 0.00747937 0.0 
1.15272 -0.0448237 0.0 
0.872494 0.0169209 0.0 
0.879332 -0.0270619 0.0 
0.969848 -0.167417 0.0 
0.152267 0.00213753 0.0 
0.985679 0.0176331 0.0 
0.18171 -0.0127803 0.0 
1.28862 0.298894 0.0 
0.914438 0.0379541 0.0 
0.929392 0.0161633 0.0 
1.00837 -0.0492246 0.0 
0.9635 0.00813655 0.0 
1.12335 -0.0592893 0.0 
1.0697 -0.000753944 0.0 
0.75302 -0.116663 0.0 
0.993637 -0.0162047 0.0 
0.611039 0.00273642 0.0 
0.949332 -0.0170378 0.0 
0.913538 0.0199442 0.0 
1.15393 -0.0399348 0.0 
1.17823 0.0551028 0.0 
1.19449 0.136469 0.0 
1.16027 0.0680757 0.0 
1.13786 0.00471509 0.0 
0.573334 -0.00570548 0.0 
0.92527 0.0183739 0.0 
1.04664 0.230996 0.0 
0.590832 -0.000828773 0.0 
1.17608 -0.122593 0.0 
0.883221 0.0065666 0.0 
0.973698 -0.1005 0.0 
1.05641 -0.0429623 0.0 
1.01147 -0.101615 0.0 
1.1174 -0.0300191 0.0 
0.299552 0.0242365 0.0 
1.20508 0.118364 0.0 
1.00406 0.0202953 0.0 
1.20548 0.0622253 0.0 
1.09191 0.106751 0.0 
1.1537 -0.0384727 0.0 
1.16818 -0.0363452 0.0 
1.22763 -0.0355565 0.0 
1.01059 -0.250248 0.0 
0.997143 0.0400051 0.0 
1.0872 0.0972482 0.0 
1.06922 -0.00076581 0.0 
1.07671 -0.0577268 0.0 
1.18614 -0.0257892 0.0 
1.04442 0.0115714 0.0 
0.992651 0.0947651 0.0 
0.203836 0.0118031 0.0 
0.940674 0.0245559 0.0 
-1.24808e-63 0 0.0 
0.233847 0.0181326 0.0 
1.15871 -0.0432437 0.0 
1.17067 0.438551 0.0 
0.957634 0.0227095 0.0 
1.20969 0.045183 0.0 
1.00964 -0.0161791 0.0 
-0.0548219 -0.035339 0.0 
1.11904 -0.025152 0.0 
0.416239 0.0293187 0.0 
0.906144 -0.212456 0.0 
0.725255 -0.191941 0.0 
0.913119 0.0291487 0.0 
0.920189 -0.324747 0.0 
0.959089 -0.310467 0.0 
1.00734 0.0390692 0.0 
1.14122 0.00168225 0.0 
0.0235585 -0.0845943 0.0 
0.87228 -0.0492699 0.0 
1.14415 -0.0449781 0.0 
1.11427 0.120081 0.0 
0.909692 -0.0405429 0.0 
0.584532 -0.00128526 0.0 
0.94439 0.00369464 0.0 
0.143929 -0.0646206 0.0 
1.12418 -0.0119005 0.0 
0.95689 -0.120239 0.0 
0.408944 -0.00113016 0.0 
0.804465 -0.0811147 0.0 
1.09516 -0.0542475 0.0 
1.10843 0.00444628 0.0 
0.951857 -0.162701 0.0 
0.992776 0.105367 0.0 
0.464824 0.0314118 0.0 
0.345633 -0.00372175 0.0 
1.12785 -0.0244292 0.0 
1.15103 -0.0487888 0.0 
0.831786 -0.10431 0.0 
0.000121084 0.0187178 0.0 
1.00218 0.0388717 0.0 
1.08274 0.0639289 0.0 
0.965988 0.118331 0.0 
0.999776 0.00576121 0.0 
1.20325 -0.0163398 0.0 
1.17275 -0.0353876 0.0 
1.13882 0.00343765 0.0 
0.0453826 -0.0451106 0.0 
1.15288 -0.0143816 0.0 
1.12881 0 0.0 
0.808997 -0.230501 0.0 
0.984614 0.0405411 0.0 
0.154036 -0.0362564 0.0 
1.01975 0.0921605 0.0 
1.02712 0 0.0 
1.06844 -0.00032844 0.0 
1.1522 0.00459409 0.0 
0.91795 0.525288 0.0 
1.09075 0.00564178 0.0 
1.01736 0.220647 0.0 
0.899116 -0.136833 0.0 
1.23636 0.0209578 0.0 
1.049 0.0606025 0.0 
1.04925 0.105495 0.0 
1.2229 0.0401765 0.0 
1.07201 -0.00276353 0.0 
0.0381031 -0.014167 0.0 
1.22443 -0.0205304 0.0 
0.278779 -0.167261 0.0 
1.05054 -0.224892 0.0 
0.770021 0.0316783 0.0 
1.11075 0.00454958 0.0 
0.326337 0.0212175 0.0 
1.00107 -0.0470291 0.0 
0.976622 0.0805494 0.0 
0.999873 0.00381986 0.0 
0.819217 0.0180452 0.0 
1.17592 -0.0349827 0.0 
1.0721 0.0674654 0.0 
1.16949 -0.120843 0.0 
1.20011 0.0667938 0.0 
0.995227 0.00753491 0.0 
1.15063 0.12172 0.0 
0.696382 0.00687421 0.0 
0.267548 -0.0809259 0.0 
1.11695 -0.0243358 0.0 
-0.0134097 -0.0373446 0.0 
0.637473 -0.00395904 0.0 
1 0 0.0 
0.506967 -0.0297179 0.0 
1.04023 -0.201745 0.0 