<VTKFile type="UnstructuredGrid" version="0.1" byte_order="LittleEndian">
  <UnstructuredGrid>
    <Piece NumberOfPoints="17003" NumberOfCells="33813">
      <Points>
        <DataArray type = "Float64" NumberOfComponents="3" format="ascii">
0 0 0.0 
12 0 0.0 
12 4 0.0 
0 4 0.0 
3.31489 2.32896 0.0 
6.63049 0 0.0 
1.20574 0 0.0 
0 2.03118 0.0 
7.24543 2.37344 0.0 
3.67441 2.74747 0.0 
0 1.70279 0.0 
5.70575 2.98528 0.0 
11.3234 0 0.0 
3.65852 0 0.0 
3.63109 1.6941 0.0 
2.34774 2.28924 0.0 
3.14822 0 0.0 
2.55098 0 0.0 
2.72869 2.1731 0.0 
12 2.91971 0.0 
5.36637 0 0.0 
11.586 4 0.0 
5.56878 2.50229 0.0 
5.1594 0 0.0 
9.53375 4 0.0 
12 3.17166 0.0 
3.83762 0 0.0 
6.06535 0 0.0 
4.10903 0 0.0 
0.686314 4 0.0 
4.83493 0 0.0 
5.57611 0 0.0 
2.74369 1.90193 0.0 
5.69372 2.46213 0.0 
5.88083 0 0.0 
3.41722 2.47377 0.0 
6.65286 0.0922782 0.0 
4.13438 3.14363 0.0 
9.40516 0 0.0 
11.3776 4 0.0 
9.22343 4 0.0 
8.14472 0 0.0 
3.20495 1.63981 0.0 
9.57869 0 0.0 
11.6531 0 0.0 
2.44859 2.40764 0.0 
3.50797 2.88271 0.0 
9.11 0 0.0 
3.15243 1.72128 0.0 
2.10649 1.48707 0.0 
2.69072 3.147 0.0 
10.9845 4 0.0 
3.70396 1.41459 0.0 
10.7695 4 0.0 
10.4533 4 0.0 
7.96012 4 0.0 
3.08076 0.991358 0.0 
0.327913 4 0.0 
0.86775 4 0.0 
2.96827 1.79636 0.0 
12 3.55991 0.0 
5.3091 3.06786 0.0 
2.86693 3.03346 0.0 
3.84302 2.05412 0.0 
2.2443 0.904844 0.0 
5.16044 0.692668 0.0 
1.48145 4 0.0 
10.1923 4 0.0 
3.85712 2.39843 0.0 
7.76169 4 0.0 
8.14832 4 0.0 
2.47368 1.5473 0.0 
3.72532 2.60907 0.0 
1.76231 3.08489 0.0 
3.4459 2.41587 0.0 
3.23515 4 0.0 
8.9402 4 0.0 
3.63627 2.71251 0.0 
8.4675 4 0.0 
5.37906 4 0.0 
4.1985 2.82031 0.0 
3.85055 1.46941 0.0 
5.9075 4 0.0 
6.96894 4 0.0 
7.16917 4 0.0 
6.65817 4 0.0 
6.4671 4 0.0 
5.18332 4 0.0 
6.19 4 0.0 
3.00112 1.78511 0.0 
4.27292 2.4058 0.0 
4.9753 4 0.0 
4.69058 4 0.0 
3.42779 2.44382 0.0 
3.32617 1.07069 0.0 
4.19 4 0.0 
4.44 4 0.0 
3.71691 4 0.0 
4.49107 1.39617 0.0 
3.41917 4 0.0 
3.24876 2.03092 0.0 
6.08624 0.852513 0.0 
2.88707 3.57386 0.0 
5.13926 1.01715 0.0 
1.65189 4 0.0 
3.52388 2.35369 0.0 
4.29283 1.66076 0.0 
3.47172 2.85665 0.0 
3.61289 2.96039 0.0 
3.23979 3.08267 0.0 
3.0642 0.879778 0.0 
3.30367 1.59409 0.0 
3.28703 0.836416 0.0 
6.34813 0.126648 0.0 
4.1223 1.02884 0.0 
3.88529 2.76651 0.0 
4.15652 1.55487 0.0 
3.49294 1.57227 0.0 
6.75851 3.54913 0.0 
4.45883 3.26009 0.0 
3.84375 1.4059 0.0 
2.45073 1.99605 0.0 
3.49251 1.47747 0.0 
3.98227 1.68587 0.0 
4.04124 2.87278 0.0 
3.79545 1.64543 0.0 
5.26687 1.58975 0.0 
1.90628 1.0939 0.0 
2.97833 1.67805 0.0 
5.44085 3.11791 0.0 
2.43985 1.7223 0.0 
6.26243 0.7856 0.0 
6.21939 0 0.0 
5.70755 2.06572 0.0 
3.7392 1.56268 0.0 
2.58637 1.44925 0.0 
2.90947 1.48346 0.0 
2.41731 1.07453 0.0 
2.85122 1.46468 0.0 
4.72087 2.62991 0.0 
2.42951 1.69013 0.0 
4.00996 1.11335 0.0 
2.88645 3.72533 0.0 
4.41217 1.0963 0.0 
2.24232 0.983332 0.0 
4.9278 1.52623 0.0 
4.98723 2.9384 0.0 
3.74179 1.70443 0.0 
2.3372 2.96675 0.0 
3.77147 1.57269 0.0 
2.63561 3.08393 0.0 
3.30119 3.19852 0.0 
4.25258 2.26794 0.0 
3.14157 2.60949 0.0 
6.05147 2.54718 0.0 
5.05176 0.712584 0.0 
4.83515 0.841898 0.0 
2.27361 3.09533 0.0 
5.03391 3.12018 0.0 
0.265085 3.48349 0.0 
5.22889 2.63039 0.0 
3.4654 2.69807 0.0 
1.74345 1.84247 0.0 
4.62732 1.598 0.0 
3.43002 1.07314 0.0 
5.54387 1.41571 0.0 
6.1725 0.752793 0.0 
7.41093 2.4613 0.0 
4.66375 1.44741 0.0 
1.7962 2.29954 0.0 
3.2389 1.57273 0.0 
3.28857 2.5488 0.0 
3.96332 1.13745 0.0 
4.48919 3.05278 0.0 
4.12051 1.58012 0.0 
3.25809 3.51351 0.0 
2.91528 1.02708 0.0 
6.51678 0.775513 0.0 
5.2515 0.985317 0.0 
2.84133 1.68881 0.0 
2.36957 2.30935 0.0 
4.22708 2.88886 0.0 
4.81581 1.58798 0.0 
3.07964 1.01856 0.0 
4.61423 1.10788 0.0 
4.50386 1.98726 0.0 
5.08677 1.51947 0.0 
5.45325 2.51931 0.0 
2.74317 1.54017 0.0 
3.83538 1.75828 0.0 
5.07685 2.86269 0.0 
3.67039 1.47062 0.0 
6.8707 3.13691 0.0 
3.36017 3.20157 0.0 
4.28938 0 0.0 
3.92859 1.75983 0.0 
3.01526 3.06892 0.0 
3.58549 1.89314 0.0 
5.72933 0 0.0 
4.76122 2.70584 0.0 
4.6306 2.62889 0.0 
6.9551 1.86088 0.0 
2.24446 2.32051 0.0 
2.23622 1.67147 0.0 
3.3526 2.04281 0.0 
3.37907 3.00092 0.0 
3.15034 2.121 0.0 
5.91724 1.59003 0.0 
1.8687 1.12424 0.0 
3.88521 0.997292 0.0 
1.84627 2.54667 0.0 
8.84816 0.137316 0.0 
2.82723 0.901736 0.0 
5.27112 1.05427 0.0 
4.61976 3.57501 0.0 
1.72617 1.62016 0.0 
4.19497 1.65706 0.0 
1.86878 3.15151 0.0 
3.54154 1.59553 0.0 
5.53926 0.0889695 0.0 
3.83616 1.53699 0.0 
8.1221 0.842632 0.0 
1.99154 1.76002 0.0 
3.10643 2.02128 0.0 
6.03022 2.41635 0.0 
4.77004 3.07143 0.0 
12 2.70513 0.0 
11.0062 3.29344 0.0 
3.71096 2.82272 0.0 
0.279603 3.65266 0.0 
3.36795 1.42701 0.0 
3.14371 2.10315 0.0 
3.97474 1.49622 0.0 
2.62409 1.31675 0.0 
3.43049 2.8681 0.0 
2.46262 2.19422 0.0 
2.8325 1.52039 0.0 
2.89891 1.94174 0.0 
2.98112 2.02899 0.0 
3.31249 1.51663 0.0 
2.42739 3.08091 0.0 
4.56297 1.08355 0.0 
3.28603 1.06702 0.0 
4.83936 2.84299 0.0 
4.98866 1.53982 0.0 
8.06273 1.18252 0.0 
4.70914 2.58228 0.0 
2.53851 1.67305 0.0 
2.75134 2.59316 0.0 
3.22916 2.8621 0.0 
4.98126 0 0.0 
4.84233 0.387687 0.0 
4.49528 1.48578 0.0 
4.55487 1.56749 0.0 
8.48741 0.487731 0.0 
3.01006 1.85762 0.0 
4.4853 0.136404 0.0 
4.9378 0.710742 0.0 
1.81774 1.96137 0.0 
2.36731 2.85744 0.0 
9.25255 0.295212 0.0 
8.8 1.46127 0.0 
3.18901 1.46092 0.0 
6.43334 0.732897 0.0 
2.48924 1.75031 0.0 
2.94651 2.1315 0.0 
1.68525 1.49997 0.0 
2.47594 2.53315 0.0 
3.09508 2.58203 0.0 
7.96724 0.660577 0.0 
3.8012 2.49716 0.0 
7.53274 0.367671 0.0 
1.42852 2.25656 0.0 
2.43717 1.12486 0.0 
4.22299 1.75957 0.0 
2.19529 1.94897 0.0 
5.95245 0.779624 0.0 
4.71474 0.34006 0.0 
3.09467 1.77881 0.0 
2.91136 1.86922 0.0 
3.71216 2.73111 0.0 
4.33386 1.48435 0.0 
7.30694 3.67354 0.0 
2.33888 1.08611 0.0 
3.03671 1.98843 0.0 
0.789193 0.25624 0.0 
1.67141 1.75125 0.0 
1.86522 2.04501 0.0 
5.52233 1.53409 0.0 
4.27001 1.24504 0.0 
3.1007 1.98097 0.0 
1.5338 0.27227 0.0 
6.7552 3.69523 0.0 
2.70793 2.94943 0.0 
4.75662 3.58989 0.0 
7.41509 2.58621 0.0 
2.12509 3.6478 0.0 
2.73426 1.02027 0.0 
5.17286 2.65759 0.0 
5.61349 2.63876 0.0 
2.9188 0.842339 0.0 
6.34214 0.721879 0.0 
2.93788 1.57243 0.0 
5.16414 1.07673 0.0 
2.77068 1.49737 0.0 
8.29537 0.322182 0.0 
4.56977 1.75074 0.0 
1.68287 1.80625 0.0 
2.81199 2.11548 0.0 
6.72283 0.733423 0.0 
2.19502 3.09472 0.0 
5.39088 3.17908 0.0 
3.71413 1.70273 0.0 
1.39118 0.22714 0.0 
6.61103 0.747894 0.0 
6.05923 0.751029 0.0 
7.91093 0.226095 0.0 
2.70567 0.291804 0.0 
3.3859 1.68216 0.0 
3.81257 0.234531 0.0 
2.81332 0.228746 0.0 
2.47115 2.89342 0.0 
3.69434 2.999 0.0 
3.45037 3.14576 0.0 
2.69439 1.00592 0.0 
7.59739 0.263801 0.0 
2.80061 2.10864 0.0 
7.04145 2.81209 0.0 
6.10361 2.1405 0.0 
0.649181 0.321486 0.0 
6.73612 0.832709 0.0 
10.6421 0.309487 0.0 
3.70163 1.51925 0.0 
2.68984 1.91255 0.0 
3.54719 0.294644 0.0 
8.89909 0.431692 0.0 
2.74486 3.06028 0.0 
3.87973 0.63935 0.0 
3.68049 0.29076 0.0 
3.92337 0.293922 0.0 
3.36855 2.44918 0.0 
1.10677 0.352551 0.0 
0.39285 1.25118 0.0 
2.91272 0.285809 0.0 
4.07822 0.821291 0.0 
0.593516 1.27738 0.0 
8.73617 0.461298 0.0 
0.916393 0.263069 0.0 
3.38168 2.09375 0.0 
4.96728 1.42408 0.0 
3.39695 2.00737 0.0 
9.83547 0.406177 0.0 
5.85895 0.744182 0.0 
3.14043 1.4542 0.0 
3.39095 0.251893 0.0 
11.7949 3.27324 0.0 
8.8493 0.549358 0.0 
3.04396 0.317955 0.0 
9.69149 0.453318 0.0 
3.4036 1.78191 0.0 
2.50481 0.32776 0.0 
7.46044 0.213639 0.0 
7.48494 3.44568 0.0 
11.6879 3.08469 0.0 
0.890042 3.775 0.0 
4.61148 1.66282 0.0 
3.97884 0 0.0 
2.60149 0.253608 0.0 
5.11051 2.81216 0.0 
4.24982 0.244254 0.0 
2.39118 0.236716 0.0 
6.90562 3.67608 0.0 
3.21169 0.273771 0.0 
4.98751 2.00808 0.0 
1.74917 0.245954 0.0 
1.87932 0.271734 0.0 
3.88083 1.59753 0.0 
2.94927 0.137401 0.0 
1.16188 3.83114 0.0 
11.16 0.431413 0.0 
5.74032 1.52164 0.0 
4.28955 1.47742 0.0 
10.0094 0.430022 0.0 
0.261848 2.62521 0.0 
3.94894 0.140341 0.0 
7.06606 0.70559 0.0 
3.12093 3.00358 0.0 
7.44289 4 0.0 
4.04693 0.167421 0.0 
10.3407 0.446931 0.0 
4.39512 0.222515 0.0 
3.2802 2.8002 0.0 
2.56951 2.97737 0.0 
4.23917 0.805389 0.0 
2.01709 0.337885 0.0 
9.38358 0.34728 0.0 
8.33342 0.473475 0.0 
11.6514 0.196094 0.0 
3.05777 0.166732 0.0 
2.7267 2.88901 0.0 
4.04285 0.338315 0.0 
0.346527 1.64782 0.0 
0.254948 3.06917 0.0 
4.14472 2.99529 0.0 
1.26479 0.336817 0.0 
2.42727 3.6024 0.0 
2.97696 3.21917 0.0 
4.81229 0.742748 0.0 
1.63732 0.319003 0.0 
3.08251 2.50412 0.0 
2.55181 3.60469 0.0 
3.50525 1.90812 0.0 
10.7931 0.252606 0.0 
3.79239 1.09098 0.0 
3.55414 3.13028 0.0 
7.09385 3.7308 0.0 
11.5549 2.66073 0.0 
11.7998 2.90088 0.0 
1.7409 3.77763 0.0 
10.1945 0.431927 0.0 
0.778952 3.70913 0.0 
7.98885 1.35928 0.0 
11.6807 1.65277 0.0 
0.663914 3.71011 0.0 
11.712 2.20916 0.0 
5.36341 2.52696 0.0 
7.00303 0.581502 0.0 
3.81354 3.63163 0.0 
11.6929 1.16835 0.0 
11.6509 1.86127 0.0 
7.78226 3.74643 0.0 
0.49456 1.09966 0.0 
3.49277 3.55974 0.0 
2.66467 3.54629 0.0 
2.78207 1.76963 0.0 
11.8092 1.8621 0.0 
4.2895 1.70303 0.0 
11.791 3.51495 0.0 
3.83389 0.103605 0.0 
0.0933757 1.56471 0.0 
3.14972 3.23104 0.0 
0.308397 0.898839 0.0 
0.137519 1.42379 0.0 
12 3.37387 0.0 
6.02102 3.74485 0.0 
0.277275 2.32354 0.0 
1.75313 3.14701 0.0 
4.68545 2.97889 0.0 
11.3914 1.82454 0.0 
2.83236 0.104539 0.0 
0.568535 3.83706 0.0 
3.12955 3.55241 0.0 
1.29231 3.90963 0.0 
2.28562 3.04972 0.0 
1.06081 3.71246 0.0 
2.77524 3.62156 0.0 
4.07333 1.71817 0.0 
4.6792 3.70082 0.0 
0.625887 3.55951 0.0 
4.26553 3.62342 0.0 
2.27861 3.6183 0.0 
6.44044 3.74737 0.0 
4.3695 3.24064 0.0 
2.0037 2.06321 0.0 
6.17079 3.67419 0.0 
3.80221 2.97625 0.0 
5.06454 1.69305 0.0 
3.87504 2.2676 0.0 
2.9912 3.58978 0.0 
0.543682 3.68222 0.0 
4.98504 2.87587 0.0 
7.36098 2.66304 0.0 
3.98353 3.10255 0.0 
1.9016 3.74707 0.0 
5.5193 3.5556 0.0 
5.89104 3.84107 0.0 
4.96679 3.61351 0.0 
6.63889 3.63748 0.0 
5.07884 3.525 0.0 
2.20512 2.37418 0.0 
2.75149 1.46407 0.0 
6.02189 1.4675 0.0 
2.99635 0 0.0 
5.89384 3.54813 0.0 
6.19283 3.83348 0.0 
[...]
<PointData>
  <DataArray type = "Float64" Name="Vitesse" NumberOfComponents="3" format="ascii">
1 0 0.0 
1.06034 0 0.0 
1.05235 0 0.0 
1 0 0.0 
0.988551 -0.0237513 0.0 
1.06608 0 0.0 
1.00426 0 0.0 
1 0 0.0 
0.881582 -0.0091216 0.0 
1.11594 -0.00806448 0.0 
1 0 0.0 
1.06736 -0.00765842 0.0 
1.06074 0 0.0 
1.0602 0 0.0 
1.02612 -0.0103224 0.0 
0.939312 0.137324 0.0 
1.04863 0 0.0 
1.03101 0 0.0 
0.637977 0.097716 0.0 
1.03035 -0.0029915 0.0 
1.06882 0 0.0 
1.05262 0 0.0 
0.984879 -0.0163315 0.0 
1.06913 0 0.0 
1.05413 0 0.0 
1.04917 -0.00118297 0.0 
1.06308 0 0.0 
1.06731 0 0.0 
1.06624 0 0.0 
1.00248 0 0.0 
1.06926 0 0.0 
1.06842 0 0.0 
0.851616 -0.0679561 0.0 
0.95635 -0.0162331 0.0 
1.06774 0 0.0 
1.13204 -0.00797433 0.0 
1.06605 0.000191397 0.0 
1.08868 -0.00809826 0.0 
1.06215 0 0.0 
1.05275 0 0.0 
1.05446 0 0.0 
1.06353 0 0.0 
1.0783 -0.0617316 0.0 
1.06199 0 0.0 
1.06055 0 0.0 
1.00625 0.148014 0.0 
1.11253 0.00641537 0.0 
1.06242 0 0.0 
1.04295 -0.0620506 0.0 
0.983408 -0.0389453 0.0 
1.06501 0.0410703 0.0 
1.05298 0 0.0 
1.09201 -0.019143 0.0 
1.05311 0 0.0 
1.05332 0 0.0 
1.05638 0 0.0 
1.05603 -0.0333013 0.0 
1.00056 0 0.0 
1.00417 0 0.0 
0.994327 -0.06185 0.0 
1.05307 -0.000235004 0.0 
1.07099 -0.00882934 0.0 
1.08184 0.0442751 0.0 
0.300425 -0.012462 0.0 
1.01573 -0.0266902 0.0 
1.07074 0.00126474 0.0 
1.01386 0 0.0 
1.05353 0 0.0 
0.989322 -0.0487876 0.0 
1.05682 0 0.0 
1.05602 0 0.0 
1.00273 -0.0811621 0.0 
1.11575 -0.0195431 0.0 
1.01242 0.0266976 0.0 
1.09055 -0.0232366 0.0 
1.07309 0 0.0 
1.05481 0 0.0 
1.11984 -0.00769257 0.0 
1.05548 0 0.0 
1.06861 0 0.0 
1.09172 -0.0170991 0.0 
1.08948 -0.00964716 0.0 
1.06448 0 0.0 
1.05911 0 0.0 
1.05842 0 0.0 
1.06034 0 0.0 
1.06123 0 0.0 
1.07041 0 0.0 
1.06272 0 0.0 
1.00162 -0.0613443 0.0 
0.957055 -0.039518 0.0 
1.07242 0 0.0 
1.07524 0 0.0 
1.1162 -0.0146021 0.0 
1.06836 -0.0299931 0.0 
1.07943 0 0.0 
1.07753 0 0.0 
1.07971 0 0.0 
1.07362 0.00400935 0.0 
1.07662 0 0.0 
0.038444 -0.00333553 0.0 
1.06822 0.00212227 0.0 
1.06629 0.015494 0.0 
1.07198 0.00252366 0.0 
1.01821 0 0.0 
0.982889 -0.0477837 0.0 
0.977634 0.016496 0.0 
1.11512 0.00845239 0.0 
1.10572 0.00192322 0.0 
1.09718 0.0221688 0.0 
1.05304 -0.0287096 0.0 
1.08713 -0.0534612 0.0 
1.06048 -0.0230702 0.0 
1.06673 0.000282494 0.0 
1.07756 -0.00587579 0.0 
1.10497 -0.0151505 0.0 
1.05769 0.00602019 0.0 
1.09234 -0.0355205 0.0 
1.06063 -0.00183263 0.0 
1.08149 -0.00816067 0.0 
1.08992 -0.0115885 0.0 
0.687976 -0.201032 0.0 
1.09341 -0.034554 0.0 
0.982676 0.0141013 0.0 
1.09641 -0.0138984 0.0 
1.04445 -0.000456906 0.0 
0.983383 0.0117397 0.0 
1.0015 -0.0219205 0.0 
1.07181 -0.0783843 0.0 
1.06968 -0.00775771 0.0 
0.970915 -0.108726 0.0 
1.06768 0.00186212 0.0 
1.06697 0 0.0 
0.654653 -0.00439472 0.0 
1.08487 -0.0124845 0.0 
1.02323 -0.0734725 0.0 
1.06071 -0.0704842 0.0 
1.01958 -0.0382626 0.0 
1.05442 -0.0714705 0.0 
1.06195 -0.0206217 0.0 
0.975828 -0.0996558 0.0 
1.07986 -0.00816607 0.0 
1.06422 0.00970455 0.0 
1.07718 -0.000999508 0.0 
1.01391 -0.029545 0.0 
1.0309 0.00993727 0.0 
1.07464 -0.0120528 0.0 
0.997067 0.00367346 0.0 
1.0371 0.0535019 0.0 
1.08013 -0.00926807 0.0 
1.06216 0.0465783 0.0 
1.09208 0.0165455 0.0 
0.73624 -0.044195 0.0 
1.1443 0.0464744 0.0 
0.99734 -0.0120866 0.0 
1.07116 0.00109463 0.0 
1.07258 0.000811339 0.0 
1.03526 0.0425644 0.0 
1.07396 -0.00946576 0.0 
1.00027 0.00130015 0.0 
1.04735 -0.0156991 0.0 
1.12911 0.00471497 0.0 
0.972906 -0.00273102 0.0 
1.0056 0.0128463 0.0 
1.0718 -0.0265791 0.0 
1.0481 0.00649767 0.0 
1.06787 0.00181597 0.0 
0.931556 -0.00826615 0.0 
1.06266 0.00640528 0.0 
0.975642 0.0285777 0.0 
1.08566 -0.0573043 0.0 
1.15176 0.0208213 0.0 
1.08064 -0.00934251 0.0 
1.0827 -0.011844 0.0 
1.0498 0.00698729 0.0 
1.07964 0.0110205 0.0 
1.04843 -0.0379319 0.0 
1.06705 0.00171697 0.0 
1.07137 0.00252503 0.0 
1.06738 -0.0949102 0.0 
0.951773 0.145302 0.0 
1.09033 -0.0150984 0.0 
1.00271 0.0123656 0.0 
1.05658 -0.034584 0.0 
1.07573 0.00100158 0.0 
0.513303 0.00569006 0.0 
1.02751 0.00950184 0.0 
0.997623 -0.0170105 0.0 
1.04513 -0.0848254 0.0 
0.898747 0.0196385 0.0 
1.07265 -0.012541 0.0 
1.09381 -0.020834 0.0 
1.06134 -0.00320251 0.0 
1.09296 0.0140261 0.0 
1.06764 0 0.0 
0.880982 0.0230159 0.0 
1.08925 0.0349937 0.0 
0.589125 0.0282715 0.0 
1.06808 0 0.0 
1.07168 -0.0179444 0.0 
1.06515 -0.0216285 0.0 
0.77781 0.00643935 0.0 
0.94978 0.0955641 0.0 
0.961829 -0.0578211 0.0 
-1.07841e-58 0 0.0 
1.10481 0.0152764 0.0 
0.110575 -0.0146746 0.0 
0.965524 0.0102974 0.0 
0.999972 -0.0210733 0.0 
1.07652 -0.0111899 0.0 
0.989795 0.0394332 0.0 
1.06274 0.000146407 0.0 
1.04252 -0.0322749 0.0 
1.07137 0.00288292 0.0 
1.07719 -0.00433793 0.0 
0.98119 -0.0121158 0.0 
0.989592 0.0150891 0.0 
1.01717 0.0279697 0.0 
1.08807 -0.0299901 0.0 
1.06856 0.000179487 0.0 
1.08376 -0.0074038 0.0 
1.06392 0.001172 0.0 
0.960278 -0.0205612 0.0 
0.119721 -0.00190003 0.0 
0.91636 -0.0146565 0.0 
1.07773 -0.0110814 0.0 
0.990033 -0.00516867 0.0 
1.05293 -0.000555226 0.0 
1.1104 -0.00659624 0.0 
1.00035 0.000944841 0.0 
1.08667 -0.0417895 0.0 
0.0204274 -0.00247639 0.0 
1.08249 -0.00291951 0.0 
1.02948 -0.059908 0.0 
1.11472 0.0115985 0.0 
0.89394 0.259113 0.0 
1.05511 -0.0780753 0.0 
0.504898 0.00930127 0.0 
0.0858705 0.00491688 0.0 
1.08855 -0.0495712 0.0 
1.04582 0.046561 0.0 
1.07592 0.000412321 0.0 
1.06677 -0.0311421 0.0 
1.07604 -0.0144665 0.0 
1.02245 0.0103303 0.0 
1.05257 0.00248662 0.0 
1.05051 -0.0224765 0.0 
1.00424 -0.111683 0.0 
1.09781 0.106014 0.0 
1.11416 0.0283761 0.0 
1.06924 0 0.0 
1.07015 -4.52762e-05 0.0 
1.06063 0.00683253 0.0 
1.0282 0.0109614 0.0 
1.06345 0.000574916 0.0 
0.823727 -0.0306539 0.0 
1.06879 -0.000517707 0.0 
1.07148 0.000765766 0.0 
0.965427 0.00432915 0.0 
1.03659 0.0642351 0.0 
1.06244 0.000281941 0.0 
0.986143 0.00478019 0.0 
1.07935 -0.0542076 0.0 
1.0672 0.00165415 0.0 
0.978364 -0.128039 0.0 
0.0847272 0.000754755 0.0 
0.986658 -0.013534 0.0 
1.03293 0.119304 0.0 
1.14695 0.0558565 0.0 
1.06431 0.000918561 0.0 
1.08296 -0.0343374 0.0 
1.06463 0.000587351 0.0 
0.988092 0.0136676 0.0 
1.01951 -0.0415565 0.0 
0.850511 0.0242911 0.0 
0.905657 -0.0168399 0.0 
1.06851 0.00196387 0.0 
1.06997 -0.000391024 0.0 
0.98494 -0.0553357 0.0 
0.839113 -0.0331749 0.0 
1.11487 -0.0107946 0.0 
1.06765 0.00523545 0.0 
1.05843 -0.00096264 0.0 
1.01531 -0.03669 0.0 
0.258709 0.00304863 0.0 
1.00142 -0.00110339 0.0 
0.979054 -0.0055269 0.0 
0.961034 0.0119751 0.0 
1.00771 0.00936651 0.0 
1.08051 -0.00155659 0.0 
0.288431 -0.00416691 0.0 
1.0074 -0.00375414 0.0 
1.06028 -0.00124557 0.0 
1.07191 0.0571337 0.0 
1.07558 -0.00425168 0.0 
0.990781 -0.00702322 0.0 
1.03276 0.0133983 0.0 
1.03821 -0.0388753 0.0 
1.05472 -0.015478 0.0 
1.04084 -0.0128007 0.0 
1.0462 -0.0288399 0.0 
1.0674 0.00166792 0.0 
1.06817 -0.0763593 0.0 
1.07195 0.00287527 0.0 
1.04701 -0.078271 0.0 
1.0635 0.000403828 0.0 
0.846879 0.0212952 0.0 
0.97709 -0.00327316 0.0 
0.0107801 0.00165651 0.0 
1.06655 0.00152423 0.0 
1.03045 0.0404707 0.0 
1.07002 -0.00740542 0.0 
1.00386 0.000806693 0.0 
1.0058 -0.00259959 0.0 
1.06681 0.00160861 0.0 
1.06817 0.00185181 0.0 
1.06394 0.000319684 0.0 
1.0357 -0.00898403 0.0 
1.05796 -0.0455785 0.0 
1.06352 -0.00341326 0.0 
1.03902 -0.00695425 0.0 
1.04795 0.0638155 0.0 
1.10219 -0.00088485 0.0 
1.09666 0.0106754 0.0 
1.03592 -0.0380554 0.0 
1.06444 0.000412066 0.0 
-1.07841e-58 0 0.0 
1.04929 -0.00469362 0.0 
0.708542 -0.00803155 0.0 
1.00085 -0.00103283 0.0 
1.0666 0.00173684 0.0 
1.06133 0.000207017 0.0 
1.09205 -0.0174287 0.0 
0.866461 -0.10485 0.0 
1.05926 -0.00598666 0.0 
1.06293 0.000453954 0.0 
1.07143 0.0464303 0.0 
1.06877 -0.0081538 0.0 
1.06177 -0.00509013 0.0 
1.06536 -0.00362894 0.0 
1.12971 -0.00413906 0.0 
1.00295 -0.00258825 0.0 
0.999681 -0.000735594 0.0 
1.0423 -0.00861762 0.0 
1.07342 -0.00648175 0.0 
0.999243 -0.00129629 0.0 
1.06314 0.000506524 0.0 
1.002 -0.00146124 0.0 
0.132728 -0.0287825 0.0 
1.05855 0.00658901 0.0 
0.0670066 -0.00849442 0.0 
1.06202 0.000330907 0.0 
1.06872 0.00187849 0.0 
1.07607 -0.056425 0.0 
1.0555 -0.00589212 0.0 
1.05187 -0.000675006 0.0 
1.0631 0.00059079 0.0 
1.04644 -0.00924222 0.0 
1.06218 0.00038876 0.0 
0.92943 -0.0361326 0.0 
1.02932 -0.0098338 0.0 
1.06462 0.00034873 0.0 
1.05864 -0.00145816 0.0 
1.0454 -0.00105952 0.0 
1.00416 0.0023414 0.0 
0.952719 0.016597 0.0 
1.06491 0 0.0 
1.03239 -0.00769062 0.0 
1.07097 -0.013042 0.0 
1.06805 -0.00161452 0.0 
1.02604 -0.00678288 0.0 
1.05974 -0.00121105 0.0 
1.05102 -0.00727593 0.0 
0.578828 0.000778343 0.0 
1.01084 -0.00431415 0.0 
1.01319 -0.00543133 0.0 
1.06252 -0.000296947 0.0 
1.04303 -0.00406379 0.0 
1.0077 0.00259228 0.0 
1.06109 0.000267038 0.0 
1.00743 0.00852931 0.0 
1.07049 0.00431653 0.0 
1.06189 0.000336253 0.0 
0.999912 0.00196579 0.0 
1.06484 -0.00170155 0.0 
1.06583 0.00131111 0.0 
1.09858 0.0319588 0.0 
1.05763 0 0.0 
1.06602 -0.00171002 0.0 
1.06164 0.000321645 0.0 
1.06875 -0.00103234 0.0 
1.1213 0.0245729 0.0 
1.05791 0.0562885 0.0 
1.0735 -0.00413724 0.0 
1.01582 -0.00768709 0.0 
1.06236 0.000320385 0.0 
1.06362 0.000587946 0.0 
1.06064 0.000115038 0.0 
1.04628 -0.00478286 0.0 
1.07603 0.0627756 0.0 
1.06695 -0.00343313 0.0 
0.999549 0.000195546 0.0 
1.0001 0.0018646 0.0 
1.0911 -0.0115485 0.0 
1.0042 -0.00313848 0.0 
1.04569 0.0167326 0.0 
1.07994 0.0289811 0.0 
1.07203 0.000381931 0.0 
1.00868 -0.00492852 0.0 
1.15944 0.0621365 0.0 
1.05137 0.0165708 0.0 
0.558789 0.00428902 0.0 
1.06119 0.000163857 0.0 
1.07881 -0.0143985 0.0 
1.09754 0.00629023 0.0 
1.05896 -0.000900876 0.0 
0.980687 -0.00315534 0.0 
1.02776 -0.00171013 0.0 
1.02015 0.00637474 0.0 
1.06175 0.000321835 0.0 
1.00302 0.00254651 0.0 
1.02553 0.00376226 0.0 
0.911538 0.00358849 0.0 
1.00214 0.00209113 0.0 
0.859225 -0.00243851 0.0 
1.00465 -0.0173994 0.0 
1.0658 0.00110182 0.0 
1.08287 0.000666993 0.0 
1.03197 0.00172117 0.0 
0.85869 0.00232966 0.0 
1.05705 -0.000572005 0.0 
0.999691 -0.00126704 0.0 
1.08256 0.00561523 0.0 
1.05697 0.0187133 0.0 
1.06185 -0.110137 0.0 
0.859733 0.00195477 0.0 
0.92926 0.0197571 0.0 
1.0532 -0.000322882 0.0 
1.06325 -0.0014771 0.0 
0.999976 9.69417e-06 0.0 
1.08649 0.0220044 0.0 
0.999969 -0.000794245 0.0 
0.999956 -0.000112554 0.0 
1.05253 -0.000501084 0.0 
1.06396 -0.00163022 0.0 
0.999756 0.00168761 0.0 
1.01359 0.024736 0.0 
1.07941 -0.0128848 0.0 
0.864434 0.00265346 0.0 
1.03948 -0.00315424 0.0 
1.00162 0.000989263 0.0 
1.07523 0.0125354 0.0 
1.00994 0.00166703 0.0 
1.03516 0.045881 0.0 
1.00601 0.00382619 0.0 
1.06106 0.0146239 0.0 
0.930439 0.0201452 0.0 
1.07599 -0.00301631 0.0 
1.00175 0.00287073 0.0 
1.08062 -0.00285005 0.0 
1.03905 0.0155341 0.0 
1.0616 -0.00125179 0.0 
1.08308 -0.00814788 0.0 
0.944197 0.0166832 0.0 
1.06317 -0.00190037 0.0 
1.10069 -0.00523359 0.0 
0.90249 0.0159803 0.0 
0.72968 -0.0610454 0.0 
1.06994 0.0134952 0.0 
1.0014 0.00180278 0.0 
1.0742 -0.0129677 0.0 
1.01726 -0.00592658 0.0 
1.09258 -0.00673636 0.0 
1.02501 0.0083029 0.0 
1.06801 -0.00371647 0.0 
1.06469 -0.00109131 0.0 
1.0732 -0.0039377 0.0 
1.0609 -0.00159205 0.0 
1.07226 -0.00475907 0.0 
0.964573 0.0855072 0.0 
1.0437 -0.0749328 0.0 
1.02302 0.00726614 0.0 
1.04432 0 0.0 
1.06518 -0.00309384 0.0 
1.0628 -0.000955843 0.0 
1.0874 -0.0102888 0.0 
1.05927 -0.000658224 0.0 
1.08339 0.00858236 0.0 
1.07255 0.00167408 0.0 
1.01503 -0.0625061 0.0 
1.06397 -0.00241702 0.0 
1.06123 -0.00243214 0.0 
1.06715 -0.0148395 0.0 
1.02571 0.00847529 0.0 
0.952484 0.0114271 0.0 
1.05375 -0.000187921 0.0 
1.03519 -0.0156277 0.0 
1.06722 -0.00206068 0.0 
1.091 -0.0285583 0.0 
1.07419 -0.00285446 0.0 
1.07501 0.00675511 0.0 
0.847115 0.00165365 0.0 
0.995247 0.0132192 0.0 
0.994368 0.0114106 0.0 
1.08514 -0.0071817 0.0 
0.395048 -0.0728809 0.0 
1.09035 -0.0113228 0.0 
1.05669 -0.000268124 0.0 
1.10996 0.0119677 0.0 
0.99199 -0.0574386 0.0 
1.07122 0.00145164 0.0 
1.07864 -0.00564585 0.0 
1.05848 -0.00145846 0.0 
1.09524 0.199918 0.0 
0.183046 0.000539482 0.0 
1.07173 -0.00314186 0.0 
1.06951 -0.00373578 0.0 
0.390744 -0.00464385 0.0 
1.10232 -0.00267659 0.0 
1.01631 0.00439021 0.0 
0.442137 0.0632447 0.0 
1.10626 -0.00477397 0.0 
0.984286 0.00579016 0.0 
1.05574 -0.000338955 0.0 
1.02418 0.0136136 0.0 
1.0546 -0.000552462 0.0 
1.05194 -0.0349209 0.0 
0.947257 0.0182128 0.0 
1.07154 0.0729475 0.0 
1.06203 -0.000858147 0.0 
1.09672 0.00119871 0.0 
0.959971 -0.186092 0.0 
1.07109 -0.00190849 0.0 
1.04367 -0.0227465 0.0 
1.06282 -0.0663113 0.0 
1.06087 -0.00455046 0.0 
0.935219 0.00628536 0.0 
0.845122 0.0120064 0.0 
1.0573 -0.000267473 0.0 
1.07011 -0.00238167 0.0 
0.963981 0.00963213 0.0 
0.724123 0.00270675 0.0 
0.980254 -0.0365079 0.0 
0.737322 0.00392347 0.0 
1.10665 0.162134 0.0 
0.968009 -0.0475311 0.0 
1.08825 -0.0149543 0.0 
1.05473 -0.0351657 0.0 
0.787999 0.00327328 0.0 
1.00012 0.00699212 0.0 
0.968909 0.0101758 0.0 
1.05326 -0.000113801 0.0 
0.999534 -0.00868337 0.0 
1.06464 -0.00244989 0.0 
1.06427 0.00109578 0.0 
1.05711 -0.0394143 0.0 
1.00068 -0.0121947 0.0 
1.07302 0.00163395 0.0 
1.04308 -0.0268134 0.0 
1.074 -0.0735008 0.0 
1.0259 0.00384328 0.0 
1.10316 -0.011974 0.0 
1.08964 -0.0137733 0.0 
1.07809 -0.0650424 0.0 
1.07864 -0.0148439 0.0 
1.07298 -0.0251134 0.0 
1.06402 -0.00453952 0.0 
1.06599 -0.00346809 0.0 
1.04016 0.00329187 0.0 
1.00029 0.0103818 0.0 
1.07455 -0.00465359 0.0 
1.07672 -0.0132439 0.0 
0.567562 0.0166109 0.0 
0.970305 -0.0440791 0.0 
1.05424 -0.000393011 0.0 
0.445948 0.0381074 0.0 
1.08987 -0.0407965 0.0 
1.06055 0.0018468 0.0 
1.05139 -0.070608 0.0 
1.01609 -0.031047 0.0 
0.890709 0.0227833 0.0 
1.1026 0.00374046 0.0 
1.05932 0.00184598 0.0 
0.897251 -0.018927 0.0 
1.08737 -0.00818963 0.0 
1.0645 -0.00580943 0.0 
1.02859 0.00911781 0.0 
1.07566 -0.0116912 0.0 
1.07533 -0.00931198 0.0 
1.08945 -0.0439975 0.0 
1.01489 -0.0594293 0.0 
0.812294 0.00821239 0.0 
0.79104 0.0287036 0.0 
1.05544 -0.000163439 0.0 
0.965358 0.0112317 0.0 
0.739583 -0.000377135 0.0 
1.06507 -0.00561103 0.0 
1.05747 -0.000870983 0.0 
1.05751 -0.000718703 0.0 
1.00831 0.00815209 0.0 
1.02309 -0.00594094 0.0 
1.06385 0.000664243 0.0 
1.06474 -0.0836889 0.0 
1.05563 0.0460143 0.0 
1.07083 -0.00849902 0.0 
1.01747 -0.0820031 0.0 
1.07923 0.00750102 0.0 
1.10282 0.0082561 0.0 
1.05435 -0.000598477 0.0 
1.03594 -0.0219729 0.0 
1.06675 0.000916422 0.0 
1.0641 0.000772056 0.0 
0.992748 -0.0152897 0.0 
1.06765 -0.00952684 0.0 
1.05322 0 0.0 
1.06336 0.00141506 0.0 
1.07514 -0.00990776 0.0 
1.10049 0.0258736 0.0 
1.04029 -0.00519902 0.0 
1.0621 0.00151398 0.0 
1.04536 0.0372401 0.0 
0.894634 0.012668 0.0 
1.073 -0.0101593 0.0 
1.00612 -0.0121777 0.0 
1.06826 -0.00699195 0.0 
1.02802 -0.019559 0.0 
0.864571 0.00847138 0.0 
1.10688 -0.0163785 0.0 
1.05343 -0.0243467 0.0 
1.06886 -0.00745352 0.0 
1.09621 -0.00712634 0.0 
1.01186 -0.0748098 0.0 
1.09309 -0.0138514 0.0 
0.808389 0.00431685 0.0 
1.06585 -0.00583668 0.0 
1.09233 -0.0109253 0.0 
0.986166 -0.121259 0.0 
1.09031 -0.0126366 0.0 
1.04068 -0.0640691 0.0 
1.09321 -0.0122609 0.0 
0.745963 0.00601613 0.0 
0.974795 -0.0399729 0.0 
1.01709 0.0411382 0.0 
1.07372 0.00141807 0.0 
1.06102 -0.00399997 0.0 
1.03951 -0.0169994 0.0 
1.10347 0.0338197 0.0 
1.03246 0.0589225 0.0 
0.81064 0.00761417 0.0 
0.694398 -0.00797022 0.0 
0.812519 0.00787279 0.0 
1.03986 -0.00267612 0.0 
1.05817 -0.00135587 0.0 
0.970024 0.00916772 0.0 
1.08825 -0.0237477 0.0 
0.867667 -0.0421272 0.0 
1.02697 -0.00642403 0.0 
0.543438 -0.0114184 0.0 
1.03634 -0.0450063 0.0 
0.968901 -0.00236343 0.0 
1.05783 -0.00493539 0.0 
1.06974 -0.0735872 0.0 
1.0294 0.0317434 0.0 
1.05686 0.00740406 0.0 
1.08416 -0.0169381 0.0 
1.11376 0.0355875 0.0 
0.837918 -0.0396368 0.0 
1.00494 -0.0223085 0.0 
1.00024 -0.00684422 0.0 
1.11773 -0.0132 0.0 
1.04041 -0.0422172 0.0 
1.06968 -0.0103401 0.0 
1.05513 -0.000379614 0.0 
0.979216 -0.00796958 0.0 
1.11017 -0.02318 0.0 
0.83269 0.0234392 0.0 
0.94294 -0.00775846 0.0 
0.401645 0.0593919 0.0 
0.966902 0.00773882 0.0 
0.780654 0.00705325 0.0 
0.964292 -0.00325724 0.0 
0.839652 -0.0764339 0.0 
1.04601 0.00513844 0.0 
1.05093 -0.00115327 0.0 
1.07585 -0.0126522 0.0 
0.875205 0.0063438 0.0 
0.875627 -0.0753625 0.0 
0.379163 -0.0539934 0.0 
0.976134 -0.0466209 0.0 
1.03957 -0.0767963 0.0 
0.498436 -0.0181583 0.0 
1.0604 0.000109184 0.0 
1.05694 0.00541497 0.0 
1.08797 -0.0114839 0.0 
1.05474 -0.0951689 0.0 
0.862476 -0.00227857 0.0 
1.04876 -0.0169346 0.0 
1.06836 -0.0606272 0.0 
1.01433 0.0302286 0.0 
1.0651 -0.00516428 0.0 
0.339672 0.0107428 0.0 
1.00048 0.00466838 0.0 
1.0688 0.00437748 0.0 
0.957631 0.0558868 0.0 
0.999333 0.00712337 0.0 
0.969591 -0.00855519 0.0 
0.826629 0.00701101 0.0 
1.06015 -0.0017521 0.0 
0.502977 0.0755442 0.0 
0.802841 0.0167518 0.0 
0.697586 -0.0282947 0.0 
1.0652 0.00146745 0.0 
1.10637 -0.0012688 0.0 
1.07628 -0.0447784 0.0 
1.01473 -0.0329914 0.0 
0.860288 0.00705744 0.0 
1.0774 -0.014302 0.0 
0.991792 0.00694429 0.0 
0.98692 -0.0725503 0.0 
1.06851 -0.064295 0.0 
0.516268 0.00993011 0.0 
1.0331 0.00575683 0.0 
0.209582 0.0204834 0.0 
1.0917 0.197826 0.0 
0.966807 -0.0277915 0.0 
1.01414 0.00598082 0.0 
1.0371 -0.028312 0.0 
0.995337 -0.0189422 0.0 
1.10752 -0.0262482 0.0 
1.05431 -0.000231449 0.0 
1.02524 -0.172941 0.0 
0.944705 -0.00771099 0.0 
0.810678 0.00608702 0.0 
0.908035 -0.00795404 0.0 
0.974211 -0.036357 0.0 
1.07837 -0.0128499 0.0 
1.08306 0.0319008 0.0 
1.07829 0.0795363 0.0 
1.07212 0.0376668 0.0 
1.06685 0.00140231 0.0 
0.751308 0.00303654 0.0 
0.978947 -0.0316371 0.0 
0.978553 0.106762 0.0 
0.783381 0.00490921 0.0 
1.09196 -0.0154335 0.0 
0.969619 0.0168632 0.0 
1.04569 -0.0535666 0.0 
1.02012 -0.0144334 0.0 
1.05441 -0.0431082 0.0 
1.0655 -0.00867041 0.0 
0.649432 0.0234239 0.0 
1.08697 0.0706173 0.0 
1.00053 0.00608176 0.0 
1.09566 0.0381932 0.0 
1.03054 0.0512986 0.0 
1.07383 0.0019787 0.0 
1.08382 -0.0122976 0.0 
1.12075 -0.0139139 0.0 
1.08023 -0.0585207 0.0 
0.995383 0.00890486 0.0 
1.02973 0.0461225 0.0 
1.05416 -0.000239246 0.0 
1.04085 -0.0190933 0.0 
1.09147 -0.00872742 0.0 
1.05032 0.00352133 0.0 
0.982652 0.027932 0.0 
0.53076 0.0295372 0.0 
0.981553 -0.0219853 0.0 
-1.07841e-58 0 0.0 
0.595964 0.0199797 0.0 
1.07969 -0.0141023 0.0 
0.993049 0.269495 0.0 
0.987644 -0.015315 0.0 
1.09968 0.0287134 0.0 
0.959325 -0.00765023 0.0 
0.26276 -0.0316182 0.0 
1.06799 -0.00724796 0.0 
0.731457 0.026068 0.0 
0.804505 -0.00804066 0.0 
0.856366 -0.0357327 0.0 
0.970025 -0.0323856 0.0 
0.847262 -0.0316034 0.0 
0.960341 -0.0436987 0.0 
0.999776 0.0119421 0.0 
1.06665 0.000490196 0.0 
0.110824 -0.0203003 0.0 
0.997971 -0.0839301 0.0 
1.07425 -0.0139846 0.0 
1.03978 0.0606523 0.0 
1.00274 -0.0623157 0.0 
0.775953 0.00486183 0.0 
0.991622 -0.0294135 0.0 
0.157802 -0.0166489 0.0 
1.07075 -0.00377596 0.0 
1.05028 -0.0626757 0.0 
0.682138 0.00648749 0.0 
0.830437 0.0165394 0.0 
1.04991 -0.0174551 0.0 
1.06219 0.0013093 0.0 
1.06542 -0.0688422 0.0 
0.980267 0.0324536 0.0 
0.768238 0.0236654 0.0 
0.638627 0.00551126 0.0 
1.07107 -0.00737784 0.0 
1.07645 -0.0155944 0.0 
1.02904 -0.119791 0.0 
0.0671461 -0.0141446 0.0 
0.997622 0.010449 0.0 
1.03243 0.0297854 0.0 
0.963559 0.0299391 0.0 
0.999827 0.000716545 0.0 
1.09884 -0.00456526 0.0 
1.08144 -0.000202695 0.0 
1.06655 0.0010195 0.0 
0.483998 -0.0660384 0.0 
1.07359 -0.00140428 0.0 
1.06268 0 0.0 
0.905924 -0.043672 0.0 
0.990564 0.00393115 0.0 
0.48903 -0.0207564 0.0 
0.996543 0.0337539 0.0 
1.03547 0 0.0 
1.05393 -0.000102732 0.0 
1.07289 0.00297803 0.0 
0.809007 0.27205 0.0 
1.05938 0.00163953 0.0 
0.964415 0.0946348 0.0 
1.0518 -0.0856844 0.0 
1.11432 0.0164848 0.0 
1.01601 0.0253654 0.0 
1.00881 0.0449087 0.0 
1.1066 0.0268438 0.0 
1.0406 -0.00150222 0.0 
0.39907 -0.00334133 0.0 
1.10769 -0.00660109 0.0 
0.307341 -0.029164 0.0 
1.08861 -0.0524275 0.0 
0.943375 0.0140655 0.0 
1.06267 0.00135103 0.0 
0.671071 0.0184752 0.0 
1.03376 -0.0294355 0.0 
0.978413 0.0168914 0.0 
0.999925 0.000333679 0.0 
0.968044 0.00795414 0.0 
1.08677 -0.0120655 0.0 
1.02654 0.0305497 0.0 
1.09274 -0.0176687 0.0 
1.09238 0.0403305 0.0 