<VTKFile type="UnstructuredGrid" version="0.1" byte_order="LittleEndian">
  <UnstructuredGrid>
    <Piece NumberOfPoints="17003" NumberOfCells="33813">
      <Points>
        <DataArray type = "Float64" NumberOfComponents="3" format="ascii">
0 0 0.0 
12 0 0.0 
12 4 0.0 
0 4 0.0 
2.73821 2.2773 0.0 
6.63049 0 0.0 
1.20574 0 0.0 
0 2.03118 0.0 
7.10549 2.35713 0.0 
3.20889 2.70771 0.0 
0 1.70279 0.0 
5.49515 2.96351 0.0 
11.3234 0 0.0 
3.65852 0 0.0 
2.95732 1.66552 0.0 
2.88755 2.24749 0.0 
3.14822 0 0.0 
2.55098 0 0.0 
3.16813 2.04329 0.0 
12 2.91971 0.0 
5.36637 0 0.0 
11.586 4 0.0 
5.28198 2.47376 0.0 
5.1594 0 0.0 
9.53375 4 0.0 
12 3.17166 0.0 
3.83762 0 0.0 
6.06535 0 0.0 
4.10903 0 0.0 
0.686314 4 0.0 
4.83493 0 0.0 
5.57611 0 0.0 
3.13505 1.90584 0.0 
5.4191 2.43436 0.0 
5.88083 0 0.0 
2.86674 2.42936 0.0 
6.65165 0.0921542 0.0 
3.79602 3.10981 0.0 
9.40516 0 0.0 
11.3776 4 0.0 
9.22343 4 0.0 
8.14472 0 0.0 
2.83831 1.61246 0.0 
9.57869 0 0.0 
11.6531 0 0.0 
2.88531 2.35711 0.0 
3.13435 2.84144 0.0 
9.11 0 0.0 
2.82404 1.69817 0.0 
2.361 1.45875 0.0 
2.66024 3.10491 0.0 
10.9845 4 0.0 
3.20535 1.38251 0.0 
10.7695 4 0.0 
10.4533 4 0.0 
7.96012 4 0.0 
2.91256 0.960957 0.0 
0.327913 4 0.0 
0.86775 4 0.0 
2.91754 1.78029 0.0 
12 3.55991 0.0 
5.06907 3.04373 0.0 
2.78777 2.98946 0.0 
3.10062 2.03012 0.0 
2.29156 0.876343 0.0 
4.98001 0.675634 0.0 
1.48145 4 0.0 
10.1923 4 0.0 
3.22885 2.36465 0.0 
7.76169 4 0.0 
8.14832 4 0.0 
2.75244 1.52405 0.0 
3.18791 2.57063 0.0 
1.85369 3.04923 0.0 
2.835 2.37209 0.0 
3.23515 4 0.0 
8.9402 4 0.0 
3.15988 2.67237 0.0 
8.4675 4 0.0 
5.37906 4 0.0 
3.76982 2.78449 0.0 
3.3241 1.43751 0.0 
5.9075 4 0.0 
6.96894 4 0.0 
7.16917 4 0.0 
6.65817 4 0.0 
6.4671 4 0.0 
5.18332 4 0.0 
6.19 4 0.0 
2.89591 1.7686 0.0 
3.7585 2.37127 0.0 
4.9753 4 0.0 
4.69058 4 0.0 
2.84884 2.3995 0.0 
3.05653 1.03937 0.0 
4.19 4 0.0 
4.44 4 0.0 
3.71691 4 0.0 
4.07203 1.36396 0.0 
3.41917 4 0.0 
2.69219 2.07662 0.0 
5.95325 0.839024 0.0 
2.80346 3.54707 0.0 
4.87309 0.992195 0.0 
1.65189 4 0.0 
2.83027 2.31475 0.0 
3.78785 1.62815 0.0 
3.09943 2.81491 0.0 
3.24261 2.92048 0.0 
3.00969 3.04104 0.0 
2.90867 0.850016 0.0 
2.86071 1.564 0.0 
3.07374 0.806727 0.0 
6.34542 0.126378 0.0 
3.75737 0.998001 0.0 
3.41755 2.72868 0.0 
3.64521 1.52255 0.0 
2.94417 1.54082 0.0 
6.72752 3.54579 0.0 
4.18068 3.23207 0.0 
3.34491 1.37374 0.0 
3.228 1.9953 0.0 
3.00568 1.44569 0.0 
3.38996 1.65505 0.0 
3.61576 2.83604 0.0 
3.17481 1.61548 0.0 
4.93948 1.55965 0.0 
2.01686 1.06446 0.0 
2.89234 1.65598 0.0 
5.22728 3.09618 0.0 
2.88048 1.70523 0.0 
6.15609 0.774742 0.0 
6.21939 0 0.0 
5.42067 2.03705 0.0 
3.15933 1.53166 0.0 
2.75551 1.42389 0.0 
2.86334 1.45701 0.0 
2.48189 1.04542 0.0 
2.85062 1.43835 0.0 
4.32783 2.59639 0.0 
2.83922 1.67128 0.0 
3.61751 1.08163 0.0 
2.83745 3.71132 0.0 
4.04812 1.06577 0.0 
2.30879 0.954355 0.0 
4.55766 1.49473 0.0 
4.68165 2.90908 0.0 
3.07533 1.67609 0.0 
2.4431 2.92388 0.0 
3.18793 1.54176 0.0 
2.63404 3.04087 0.0 
3.07225 3.15892 0.0 
3.71111 2.23422 0.0 
2.88032 2.56235 0.0 
5.82277 2.52293 0.0 
4.85466 0.694073 0.0 
4.57764 0.818128 0.0 
2.3474 3.05469 0.0 
4.77398 3.09444 0.0 
0.265321 3.48096 0.0 
4.90987 2.60008 0.0 
3.02751 2.65564 0.0 
2.01024 1.81031 0.0 
4.19999 1.56534 0.0 
3.12648 1.04158 0.0 
5.26687 1.38872 0.0 
6.0667 0.742095 0.0 
7.28573 2.44659 0.0 
4.26281 1.41538 0.0 
2.07814 2.2635 0.0 
2.86511 1.54364 0.0 
2.87593 2.50282 0.0 
3.56316 1.10554 0.0 
4.15071 3.02076 0.0 
3.59488 1.54797 0.0 
3.10451 3.4836 0.0 
2.8108 0.997093 0.0 
6.42727 0.766206 0.0 
5.00493 0.961873 0.0 
2.93945 1.66824 0.0 
2.89892 2.26561 0.0 
3.8199 2.85342 0.0 
4.42184 1.55581 0.0 
2.91018 0.988095 0.0 
4.26835 1.07813 0.0 
4.01964 1.9538 0.0 
4.74045 1.48876 0.0 
5.15332 2.48999 0.0 
2.86423 1.51625 0.0 
3.16684 1.73025 0.0 
4.76915 2.83321 0.0 
3.1456 1.4388 0.0 
6.78275 3.12719 0.0 
3.11627 3.16238 0.0 
4.28938 0 0.0 
3.29307 1.73038 0.0 
2.87176 3.02593 0.0 
2.71108 1.88444 0.0 
5.72933 0 0.0 
4.3855 2.67284 0.0 
4.22299 2.59493 0.0 
6.78793 1.84178 0.0 
2.71224 2.28077 0.0 
2.61163 1.64691 0.0 
2.56072 1.90632 0.0 
3.08296 2.95937 0.0 
2.783 2.05442 0.0 
5.66834 1.56448 0.0 
1.98589 1.09466 0.0 
3.53139 0.966193 0.0 
2.08617 2.5084 0.0 
8.84753 0.13724 0.0 
2.7461 0.872342 0.0 
5.01302 1.02974 0.0 
4.49472 3.56221 0.0 
1.94863 1.58888 0.0 
3.66722 1.62478 0.0 
1.94779 3.11569 0.0 
2.95891 1.56439 0.0 
5.53613 0.088675 0.0 
3.27712 1.50557 0.0 
8.07998 0.837724 0.0 
2.32894 1.73073 0.0 
2.83501 2.06733 0.0 
5.79026 2.39103 0.0 
4.46737 3.04223 0.0 
12 2.70513 0.0 
10.9993 3.29251 0.0 
3.27342 2.7833 0.0 
0.279288 3.6505 0.0 
2.96653 1.39566 0.0 
2.79032 2.03354 0.0 
3.45023 1.46422 0.0 
2.7106 1.2892 0.0 
3.07632 2.82602 0.0 
3.15732 2.15058 0.0 
2.86679 1.49526 0.0 
3.00659 1.9369 0.0 
2.94325 2.05549 0.0 
2.90346 1.48604 0.0 
2.48032 3.03886 0.0 
4.21695 1.05382 0.0 
3.03141 1.03582 0.0 
4.4971 2.81142 0.0 
4.62622 1.50852 0.0 
7.99245 1.1742 0.0 
4.3077 2.54859 0.0 
2.90263 1.65536 0.0 
2.86251 2.53894 0.0 
2.96234 2.81815 0.0 
4.98126 0 0.0 
4.75007 0.379248 0.0 
4.06102 1.45328 0.0 
4.11844 1.53483 0.0 
8.47483 0.486256 0.0 
2.89847 1.84808 0.0 
4.46958 0.134959 0.0 
4.73026 0.691359 0.0 
2.12457 1.9288 0.0 
2.51102 2.81304 0.0 
9.24988 0.294885 0.0 
8.73983 1.45381 0.0 
2.89698 1.43143 0.0 
6.34729 0.724043 0.0 
2.95265 1.73654 0.0 
2.97747 2.05621 0.0 
1.87383 1.46893 0.0 
2.79076 2.48252 0.0 
2.87412 2.53392 0.0 
7.93622 0.65703 0.0 
3.20963 2.46106 0.0 
7.51872 0.36613 0.0 
1.61049 2.2223 0.0 
2.51302 1.09587 0.0 
3.68249 1.7273 0.0 
2.70596 1.92342 0.0 
5.82392 0.766793 0.0 
4.63466 0.332747 0.0 
2.84134 1.76121 0.0 
2.97596 1.85728 0.0 
3.235 2.69181 0.0 
3.87215 1.45178 0.0 
7.29628 3.67235 0.0 
2.42131 1.05699 0.0 
2.89214 2.01029 0.0 
0.789126 0.25318 0.0 
1.90363 1.71925 0.0 
2.19622 2.01191 0.0 
5.23205 1.506 0.0 
3.85561 1.21308 0.0 
2.83625 2.0054 0.0 
1.53387 0.266534 0.0 
6.74081 3.69369 0.0 
2.71184 2.90399 0.0 
4.64639 3.57873 0.0 
7.29795 2.57249 0.0 
2.11795 3.63008 0.0 
2.69658 0.990748 0.0 
4.84929 2.62705 0.0 
5.34404 2.61156 0.0 
2.80826 0.813205 0.0 
6.25326 0.712807 0.0 
2.88219 1.54755 0.0 
4.88916 1.05098 0.0 
2.84814 1.47223 0.0 
8.28875 0.321417 0.0 
4.11475 1.71768 0.0 
1.92611 1.77402 0.0 
3.10341 1.94457 0.0 
6.64956 0.725708 0.0 
2.27731 3.05478 0.0 
5.18638 3.1583 0.0 
3.04313 1.6745 0.0 
1.39103 0.223536 0.0 
6.53079 0.739509 0.0 
5.94558 0.739629 0.0 
7.90675 0.225624 0.0 
2.67236 0.282356 0.0 
2.81281 1.65107 0.0 
3.75819 0.228799 0.0 
2.78657 0.22255 0.0 
2.57681 2.84837 0.0 
3.32429 2.96002 0.0 
3.17122 3.10632 0.0 
2.66767 0.976484 0.0 
7.59032 0.263021 0.0 
3.11914 1.9342 0.0 
6.92168 2.79848 0.0 
5.86117 2.11483 0.0 
0.649326 0.317395 0.0 
6.6477 0.823307 0.0 
10.6405 0.309281 0.0 
3.14692 1.48779 0.0 
3.18466 1.92847 0.0 
3.46735 0.285003 0.0 
8.89217 0.430863 0.0 
2.71072 3.01662 0.0 
3.64297 0.61506 0.0 
3.60025 0.281739 0.0 
3.84421 0.285863 0.0 
2.83217 2.4031 0.0 
1.10895 0.345892 0.0 
0.402961 1.24354 0.0 
2.86852 0.276487 0.0 
3.7755 0.793216 0.0 
0.619067 1.2624 0.0 
8.72708 0.460218 0.0 
0.916555 0.259598 0.0 
2.54527 2.01019 0.0 
4.61435 1.39335 0.0 
2.50055 1.96906 0.0 
9.8317 0.405703 0.0 
5.73065 0.731495 0.0 
2.88963 1.42519 0.0 
3.33279 0.244188 0.0 
11.7943 3.27315 0.0 
8.83757 0.547954 0.0 
2.98244 0.306666 0.0 
9.6864 0.452682 0.0 
2.72258 1.75046 0.0 
2.47851 0.316566 0.0 
7.45531 0.213079 0.0 
7.45698 3.44253 0.0 
11.6863 3.08447 0.0 
0.890015 3.77192 0.0 
4.17372 1.62997 0.0 
3.97884 0 0.0 
2.57888 0.246281 0.0 
4.79914 2.78241 0.0 
4.19467 0.239051 0.0 
2.37763 0.230411 0.0 
6.89097 3.67449 0.0 
3.15307 0.264785 0.0 
4.60027 1.97539 0.0 
1.74745 0.240431 0.0 
1.87627 0.264815 0.0 
3.29981 1.56653 0.0 
2.93676 0.13504 0.0 
1.16169 3.82922 0.0 
11.1576 0.431087 0.0 
5.47678 1.49524 0.0 
3.82171 1.44487 0.0 
10.0056 0.429533 0.0 
0.266228 2.62157 0.0 
3.93084 0.138524 0.0 
7.00824 0.699349 0.0 
2.92822 2.96027 0.0 
7.44289 4 0.0 
4.0214 0.164927 0.0 
10.3371 0.446465 0.0 
4.35048 0.218382 0.0 
2.97055 2.75622 0.0 
2.6166 2.93286 0.0 
3.94557 0.778433 0.0 
2.01187 0.327478 0.0 
9.38003 0.346844 0.0 
8.32004 0.471922 0.0 
11.651 0.196037 0.0 
3.03713 0.163207 0.0 
2.73829 2.84252 0.0 
3.94338 0.328481 0.0 
0.357252 1.64116 0.0 
0.256954 3.06617 0.0 
3.76175 2.95987 0.0 
1.26687 0.330016 0.0 
2.40118 3.57913 0.0 
2.84946 3.17859 0.0 
4.58228 0.721395 0.0 
1.63794 0.310882 0.0 
2.8665 2.45503 0.0 
2.51359 3.58098 0.0 
2.59327 1.90111 0.0 
10.7921 0.252472 0.0 
3.41491 1.05913 0.0 
3.24851 3.0914 0.0 
7.08493 3.72982 0.0 
11.5518 2.66032 0.0 
11.7992 2.90079 0.0 
1.73946 3.77158 0.0 
10.1909 0.431469 0.0 
0.779352 3.7045 0.0 
7.9037 1.34914 0.0 
11.6792 1.65257 0.0 
0.664004 3.70599 0.0 
11.7108 2.209 0.0 
5.0525 2.49703 0.0 
6.95989 0.57691 0.0 
3.67443 3.61381 0.0 
11.6914 1.16815 0.0 
11.6491 1.86103 0.0 
7.77685 3.74581 0.0 
0.508117 1.08905 0.0 
3.32847 3.53403 0.0 
2.61043 3.51809 0.0 
3.00878 1.75423 0.0 
11.8087 1.86203 0.0 
3.77628 1.67043 0.0 
11.7904 3.51487 0.0 
3.82401 0.102573 0.0 
0.0938413 1.56427 0.0 
2.96936 3.19127 0.0 
0.311362 0.894695 0.0 
0.138587 1.42278 0.0 
12 3.37387 0.0 
6.00476 3.74318 0.0 
0.283641 2.3192 0.0 
1.83104 3.1124 0.0 
4.35086 2.94755 0.0 
11.3857 1.82378 0.0 
2.82639 0.103275 0.0 
0.568191 3.83578 0.0 
3.00528 3.52431 0.0 
1.29213 3.90908 0.0 
2.37144 3.00835 0.0 
1.06185 3.70697 0.0 
2.71366 3.59852 0.0 
3.4979 1.6868 0.0 
4.61688 3.6945 0.0 
0.628027 3.552 0.0 
4.14263 3.61007 0.0 
2.26397 3.59717 0.0 
6.4284 3.7461 0.0 
4.07709 3.21113 0.0 
2.40378 2.03101 0.0 
6.14726 3.67176 0.0 
3.41334 2.93804 0.0 
4.70109 1.66143 0.0 
3.19888 2.23718 0.0 
2.89579 3.56407 0.0 
0.543678 3.6781 0.0 
4.66771 2.84578 0.0 
7.2465 2.64971 0.0 
3.62945 3.06685 0.0 
1.89857 3.73829 0.0 
5.43908 3.5475 0.0 
5.88388 3.84033 0.0 
4.87555 3.60434 0.0 
6.61677 3.63512 0.0 
4.95734 3.51276 0.0 
2.62265 2.33377 0.0 
2.82865 1.43839 0.0 
5.79332 1.44376 0.0 
2.99635 0 0.0 
5.83515 3.54213 0.0 
[...]
<PointData>
  <DataArray type = "Float64" Name="Vitesse" NumberOfComponents="3" format="ascii">
1 0 0.0 
1 0 0.0 
1 0 0.0 
1 0 0.0 
1 1.13924e-14 0.0 
1 0 0.0 
1 0 0.0 
1 0 0.0 
1 2.93815e-17 0.0 
1 4.72641e-15 0.0 
1 0 0.0 
1 1.89203e-17 0.0 
1 0 0.0 
1 0 0.0 
1 -1.96365e-14 0.0 
1 7.13477e-15 0.0 
1 0 0.0 
1 0 0.0 
1 1.88008e-14 0.0 
1 -2.16613e-16 0.0 
1 0 0.0 
1 0 0.0 
1 1.75513e-16 0.0 
1 0 0.0 
1 0 0.0 
1 -3.60318e-16 0.0 
1 0 0.0 
1 0 0.0 
1 0 0.0 
1 0 0.0 
1 0 0.0 
1 0 0.0 
1 7.11845e-16 0.0 
1 1.41769e-16 0.0 
1 0 0.0 
1 1.59572e-14 0.0 
1 8.85223e-17 0.0 
1 7.91806e-16 0.0 
1 0 0.0 
1 0 0.0 
1 0 0.0 
1 0 0.0 
1 -8.28417e-14 0.0 
1 0 0.0 
1 0 0.0 
1 2.04744e-14 0.0 
1 2.40172e-15 0.0 
1 0 0.0 
1 -2.84428e-14 0.0 
1 1.08225e-16 0.0 
1 -9.61016e-16 0.0 
1 0 0.0 
1 -5.8925e-15 0.0 
1 0 0.0 
1 0 0.0 
1 0 0.0 
1 -8.03492e-16 0.0 
1 0 0.0 
1 0 0.0 
1 1.56873e-15 0.0 
1 2.22899e-16 0.0 
1 7.78502e-17 0.0 
1 -1.33071e-15 0.0 
1 -1.49021e-15 0.0 
1 -3.19107e-16 0.0 
1 -1.16156e-16 0.0 
1 0 0.0 
1 0 0.0 
1 -1.29165e-15 0.0 
1 0 0.0 
1 0 0.0 
1 1.88326e-15 0.0 
1 6.23021e-15 0.0 
1 -2.14148e-17 0.0 
1 4.58431e-15 0.0 
1 0 0.0 
1 0 0.0 
1 5.57672e-15 0.0 
1 0 0.0 
1 0 0.0 
1 1.31319e-15 0.0 
1 -4.55373e-15 0.0 
1 0 0.0 
1 0 0.0 
1 0 0.0 
1 0 0.0 
1 0 0.0 
1 0 0.0 
1 0 0.0 
1 -4.42615e-17 0.0 
1 -4.00826e-16 0.0 
1 0 0.0 
1 0 0.0 
1 1.34223e-14 0.0 
1 -1.19772e-15 0.0 
1 0 0.0 
1 0 0.0 
1 0 0.0 
1 -5.2435e-16 0.0 
1 0 0.0 
1 -1.11089e-14 0.0 
1 1.27904e-17 0.0 
1 -2.80901e-16 0.0 
1 -1.14009e-16 0.0 
1 0 0.0 
1 1.17592e-15 0.0 
1 6.10318e-16 0.0 
1 2.42166e-15 0.0 
1 2.14701e-15 0.0 
1 8.3944e-17 0.0 
1 -6.15603e-16 0.0 
1 -4.8407e-14 0.0 
1 -6.15463e-16 0.0 
1 -5.11275e-17 0.0 
1 -5.05349e-16 0.0 
1 2.71031e-15 0.0 
1 -7.92346e-16 0.0 
1 -1.88596e-14 0.0 
1 2.28784e-16 0.0 
1 4.71048e-16 0.0 
1 -3.64203e-15 0.0 
1 -2.04834e-15 0.0 
1 -1.02495e-14 0.0 
1 -3.17884e-16 0.0 
1 1.50259e-15 0.0 
1 -4.23412e-15 0.0 
1 1.6871e-16 0.0 
1 1.67558e-16 0.0 
1 -7.56174e-15 0.0 
1 -6.21418e-17 0.0 
1 -2.71133e-15 0.0 
1 2.45231e-17 0.0 
1 0 0.0 
1 -4.71849e-17 0.0 
1 -7.11167e-15 0.0 
1 1.24192e-15 0.0 
1 3.68271e-15 0.0 
1 -1.85417e-17 0.0 
1 4.22862e-15 0.0 
1 7.59055e-17 0.0 
1 -1.83238e-15 0.0 
1 -1.12328e-15 0.0 
1 1.14037e-16 0.0 
1 -1.69425e-16 0.0 
1 -1.53082e-16 0.0 
1 -2.54689e-16 0.0 
1 5.60906e-16 0.0 
1 -5.80244e-15 0.0 
1 -1.46474e-15 0.0 
1 -5.97937e-15 0.0 
1 -1.39193e-15 0.0 
1 1.66065e-16 0.0 
1 1.88067e-16 0.0 
1 -5.88219e-15 0.0 
1 4.39952e-17 0.0 
1 -4.80741e-17 0.0 
1 4.51606e-17 0.0 
1 -5.71107e-16 0.0 
1 3.82832e-16 0.0 
1 1.42262e-16 0.0 
1 2.31804e-16 0.0 
1 5.99304e-15 0.0 
1 -9.68288e-17 0.0 
1 -1.57029e-16 0.0 
1 -1.79e-15 0.0 
1 4.96392e-17 0.0 
1 5.47484e-17 0.0 
1 1.30904e-16 0.0 
1 -2.72315e-16 0.0 
1 2.35705e-16 0.0 
1 -3.7485e-14 0.0 
1 1.94198e-14 0.0 
1 -1.31261e-15 0.0 
1 3.70334e-16 0.0 
1 -5.83004e-16 0.0 
1 2.20316e-16 0.0 
1 -3.14151e-16 0.0 
1 -2.41e-16 0.0 
1 -1.27279e-16 0.0 
1 8.7077e-15 0.0 
1 8.36335e-15 0.0 
1 1.12146e-15 0.0 
1 -1.13127e-16 0.0 
1 -6.14942e-16 0.0 
1 1.10651e-17 0.0 
1 2.49304e-16 0.0 
1 7.75789e-17 0.0 
1 3.05082e-16 0.0 
1 2.59412e-15 0.0 
1 -1.10423e-15 0.0 
1 7.08065e-16 0.0 
1 -7.21332e-15 0.0 
1 1.3066e-16 0.0 
1 2.06074e-16 0.0 
1 0 0.0 
1 5.57793e-16 0.0 
1 -8.10512e-16 0.0 
1 -7.98568e-15 0.0 
1 0 0.0 
1 -1.37493e-16 0.0 
1 1.9783e-16 0.0 
1 -5.50405e-17 0.0 
1 4.98537e-15 0.0 
1 -9.18751e-18 0.0 
1 -3.60912e-14 0.0 
1 1.21756e-15 0.0 
1 7.25292e-13 0.0 
1 1.70204e-16 0.0 
1 3.08522e-17 0.0 
1 -8.70082e-16 0.0 
1 3.68556e-17 0.0 
1 -3.61806e-17 0.0 
1 -3.64119e-16 0.0 
1 7.31454e-17 0.0 
1 1.06071e-16 0.0 
1 -1.20364e-16 0.0 
1 2.03787e-16 0.0 
1 1.4244e-17 0.0 
1 -1.96401e-14 0.0 
1 -9.20628e-17 0.0 
1 -5.26877e-15 0.0 
1 -4.88389e-17 0.0 
1 2.75754e-16 0.0 
1 -6.03922e-15 0.0 
1 4.57496e-17 0.0 
1 4.1718e-16 0.0 
1 -1.25772e-16 0.0 
1 1.64961e-16 0.0 
1 3.48648e-15 0.0 
1 -2.81833e-17 0.0 
1 -5.97353e-15 0.0 
1 -1.74692e-12 0.0 
1 -2.00583e-15 0.0 
1 5.44898e-16 0.0 
1 1.69736e-15 0.0 
1 1.63566e-15 0.0 
1 2.10062e-15 0.0 
1 -1.55576e-15 0.0 
1 -8.8021e-15 0.0 
1 -9.52565e-15 0.0 
1 -9.08889e-16 0.0 
1 -1.8166e-17 0.0 
1 -9.84306e-16 0.0 
1 4.55987e-16 0.0 
1 -2.95988e-16 0.0 
1 6.66579e-18 0.0 
1 2.0128e-16 0.0 
1 -3.15833e-15 0.0 
1 -2.3657e-14 0.0 
1 -4.20693e-16 0.0 
1 0 0.0 
1 5.63533e-17 0.0 
1 -4.27799e-16 0.0 
1 -2.86202e-16 0.0 
1 -2.76116e-18 0.0 
1 -1.46541e-15 0.0 
1 1.5212e-16 0.0 
1 -9.96396e-17 0.0 
1 2.85546e-16 0.0 
1 -2.00205e-15 0.0 
1 -1.41437e-16 0.0 
1 -1.22507e-16 0.0 
1 -2.98052e-15 0.0 
1 -1.0286e-16 0.0 
1 -3.36765e-15 0.0 
1 5.67756e-14 0.0 
1 -2.18881e-16 0.0 
1 -1.53064e-15 0.0 
1 5.87819e-15 0.0 
1 -8.41424e-17 0.0 
1 6.2552e-16 0.0 
1 1.22003e-16 0.0 
1 1.17526e-16 0.0 
1 5.75988e-17 0.0 
1 1.43596e-15 0.0 
1 4.80702e-16 0.0 
1 8.69182e-17 0.0 
1 3.6349e-17 0.0 
1 -6.82657e-15 0.0 
1 -3.79713e-16 0.0 
1 5.24122e-15 0.0 
1 -7.60675e-16 0.0 
1 5.36487e-17 0.0 
1 -5.53546e-17 0.0 
1 -6.83565e-15 0.0 
1 -5.58884e-17 0.0 
1 -1.56845e-16 0.0 
1 4.8414e-16 0.0 
1 1.31849e-16 0.0 
1 -1.07999e-15 0.0 
1 -4.39676e-15 0.0 
1 6.29101e-17 0.0 
1 2.80264e-16 0.0 
1 -2.32767e-15 0.0 
1 -6.97309e-19 0.0 
1 1.13008e-16 0.0 
1 -1.2084e-16 0.0 
1 -5.23561e-17 0.0 
1 1.30937e-16 0.0 
1 2.0169e-16 0.0 
1 -5.21056e-16 0.0 
1 -1.01241e-16 0.0 
1 -1.31722e-14 0.0 
1 2.45709e-18 0.0 
1 4.08706e-15 0.0 
1 1.09777e-16 0.0 
1 -1.67472e-16 0.0 
1 -1.15084e-16 0.0 
1 -6.03629e-14 0.0 
1 -3.15202e-16 0.0 
1 -3.73941e-16 0.0 
1 -8.34237e-18 0.0 
1 -8.1527e-15 0.0 
1 -1.86674e-17 0.0 
1 -1.649e-16 0.0 
1 5.7937e-17 0.0 
1 1.2097e-16 0.0 
1 -2.77434e-16 0.0 
1 -1.11179e-13 0.0 
1 2.74365e-19 0.0 
1 -1.27685e-16 0.0 
1 -2.67334e-15 0.0 
1 1.82221e-15 0.0 
1 5.49994e-16 0.0 
1 -7.86721e-17 0.0 
1 1.32782e-16 0.0 
1 -3.86585e-14 0.0 
1 1.85126e-16 0.0 
1 2.24628e-16 0.0 
1 -1.27315e-16 0.0 
1 -3.29534e-16 0.0 
1 2.75626e-17 0.0 
1 -7.53877e-15 0.0 
1 2.67089e-15 0.0 
1 -3.96272e-16 0.0 
1 -8.10276e-17 0.0 
1 -1.67636e-15 0.0 
1 -5.5846e-16 0.0 
1 -2.08908e-16 0.0 
1 -1.21474e-16 0.0 
1 5.30772e-15 0.0 
1 -2.04854e-16 0.0 
1 -2.08119e-17 0.0 
1 -1.22842e-16 0.0 
1 -4.64915e-16 0.0 
1 8.42364e-17 0.0 
1 -1.58102e-16 0.0 
1 -1.85728e-17 0.0 
1 -6.77953e-15 0.0 
1 -7.37633e-17 0.0 
1 -6.5094e-15 0.0 
1 -6.80274e-17 0.0 
1 8.72611e-17 0.0 
1 -1.31966e-15 0.0 
1 -2.91746e-16 0.0 
1 -2.69151e-17 0.0 
1 -3.11151e-16 0.0 
1 -2.61393e-16 0.0 
1 -2.79878e-18 0.0 
1 -6.76465e-15 0.0 
1 -3.15151e-16 0.0 
1 9.81414e-17 0.0 
1 1.16587e-16 0.0 
1 -2.34601e-16 0.0 
1 -4.61258e-18 0.0 
1 -2.34042e-16 0.0 
1 0 0.0 
1 -1.90654e-16 0.0 
1 5.43887e-16 0.0 
1 -1.9813e-16 0.0 
1 -2.71207e-16 0.0 
1 1.90186e-16 0.0 
1 -1.60357e-16 0.0 
1 2.20261e-16 0.0 
1 1.71155e-16 0.0 
1 9.05212e-17 0.0 
1 -3.27802e-15 0.0 
1 -1.47178e-16 0.0 
1 -1.59979e-17 0.0 
1 1.10339e-16 0.0 
1 9.49545e-17 0.0 
1 -9.74562e-16 0.0 
1 2.98728e-17 0.0 
1 2.00448e-17 0.0 
1 4.1557e-18 0.0 
1 7.4677e-17 0.0 
1 -6.99205e-16 0.0 
1 0 0.0 
1 3.33416e-17 0.0 
1 5.84809e-17 0.0 
1 -5.64019e-17 0.0 
1 4.89123e-16 0.0 
1 -2.08835e-15 0.0 
1 -2.94559e-16 0.0 
1 -1.00066e-16 0.0 
1 -1.03002e-16 0.0 
1 -2.81094e-16 0.0 
1 -4.93999e-17 0.0 
1 -2.71219e-16 0.0 
1 -3.37519e-15 0.0 
1 -1.22389e-16 0.0 
1 4.18464e-17 0.0 
1 3.69205e-18 0.0 
1 9.79888e-16 0.0 
1 -1.18985e-16 0.0 
1 -3.10833e-16 0.0 
1 -1.62565e-16 0.0 
1 -2.55975e-17 0.0 
1 1.31956e-16 0.0 
1 2.66392e-15 0.0 
1 -3.50678e-16 0.0 
1 -4.8253e-15 0.0 
1 7.92982e-17 0.0 
1 -1.49889e-15 0.0 
1 8.54579e-16 0.0 
1 4.99542e-17 0.0 
1 1.14053e-16 0.0 
1 -1.51066e-16 0.0 
1 -1.89648e-16 0.0 
1 -1.37369e-16 0.0 
1 4.30702e-17 0.0 
1 1.62754e-16 0.0 
1 2.54157e-16 0.0 
1 7.19531e-17 0.0 
1 1.68999e-17 0.0 
1 1.52211e-16 0.0 
1 1.04627e-16 0.0 
1 6.91303e-17 0.0 
1 2.28288e-16 0.0 
1 2.45601e-16 0.0 
1 -3.84319e-17 0.0 
1 -1.37397e-16 0.0 
1 4.03984e-16 0.0 
1 -2.75582e-16 0.0 
1 4.67963e-15 0.0 
1 1.6402e-16 0.0 
1 6.69888e-16 0.0 
1 8.30202e-17 0.0 
1 -3.00445e-17 0.0 
1 9.18865e-17 0.0 
1 1.25825e-16 0.0 
1 -4.13966e-17 0.0 
1 1.15218e-17 0.0 
1 5.64596e-17 0.0 
1 -7.73037e-17 0.0 
1 2.18505e-16 0.0 
1 -4.90511e-17 0.0 
1 3.39917e-16 0.0 
1 1.5801e-16 0.0 
1 -8.94233e-17 0.0 
1 -7.06806e-17 0.0 
1 6.61333e-17 0.0 
1 -7.46288e-17 0.0 
1 -5.78292e-16 0.0 
1 -3.05275e-17 0.0 
1 -1.01237e-16 0.0 
1 5.4972e-16 0.0 
1 -9.64102e-17 0.0 
1 -5.0046e-17 0.0 
1 3.49739e-16 0.0 
1 -1.636e-16 0.0 
1 1.26118e-16 0.0 
1 3.6051e-16 0.0 
1 7.44678e-16 0.0 
1 -1.76499e-16 0.0 
1 1.61189e-15 0.0 
1 -1.61745e-17 0.0 
1 -1.92534e-16 0.0 
1 -1.06803e-16 0.0 
1 4.21429e-17 0.0 
1 5.39091e-16 0.0 
1 1.75585e-16 0.0 
1 9.14875e-16 0.0 
1 -9.41212e-17 0.0 
1 8.58808e-17 0.0 
1 -6.86195e-17 0.0 
1 -2.35037e-17 0.0 
1 2.20202e-16 0.0 
1 9.47383e-17 0.0 
1 3.24048e-15 0.0 
1 3.56577e-15 0.0 
1 8.72844e-17 0.0 
1 0 0.0 
1 -7.14867e-17 0.0 
1 1.33068e-16 0.0 
1 7.78768e-16 0.0 
1 3.82202e-17 0.0 
1 1.84617e-16 0.0 
1 5.17867e-18 0.0 
1 -3.4958e-15 0.0 
1 -1.35109e-16 0.0 
1 -3.84527e-17 0.0 
1 1.10245e-16 0.0 
1 2.00028e-16 0.0 
1 6.03742e-17 0.0 
1 -8.65973e-17 0.0 
1 2.19942e-16 0.0 
1 -9.44552e-17 0.0 
1 -1.5372e-14 0.0 
1 -8.20391e-17 0.0 
1 1.02963e-16 0.0 
1 -2.27261e-17 0.0 
1 -2.06553e-16 0.0 
1 1.85989e-16 0.0 
1 5.72374e-16 0.0 
1 9.73046e-15 0.0 
1 -5.39682e-15 0.0 
1 -4.23372e-17 0.0 
1 1.53022e-15 0.0 
1 5.99984e-16 0.0 
1 -6.39205e-17 0.0 
1 -6.69374e-16 0.0 
1 -5.53187e-17 0.0 
1 -9.48683e-15 0.0 
1 -1.45275e-14 0.0 
1 6.33299e-17 0.0 
1 -1.42909e-16 0.0 
1 -3.84629e-15 0.0 
1 1.70398e-15 0.0 
1 -1.43746e-16 0.0 
1 2.58643e-15 0.0 
1 2.58517e-15 0.0 
1 -3.35463e-18 0.0 
1 1.13932e-16 0.0 
1 -2.47693e-16 0.0 
1 -2.62264e-16 0.0 
1 -4.94012e-16 0.0 
1 5.11226e-17 0.0 
1 -4.64159e-15 0.0 
1 1.38703e-16 0.0 
1 1.06585e-15 0.0 
1 -1.60034e-15 0.0 
1 1.34984e-16 0.0 
1 -5.21225e-16 0.0 
1 3.27355e-15 0.0 
1 -6.02255e-17 0.0 
1 5.39049e-17 0.0 
1 -1.7985e-14 0.0 
1 -3.58919e-17 0.0 
1 2.06099e-16 0.0 
1 3.21568e-16 0.0 
1 1.90415e-16 0.0 
1 1.12623e-16 0.0 
1 1.16828e-16 0.0 
1 -6.85667e-15 0.0 
1 5.80421e-17 0.0 
1 5.78253e-16 0.0 
1 -4.72276e-16 0.0 
1 -1.00644e-16 0.0 
1 -1.76444e-16 0.0 
1 9.15178e-17 0.0 
1 2.74021e-17 0.0 
1 -1.81615e-16 0.0 
1 -2.09656e-17 0.0 
1 -3.50139e-17 0.0 
1 -6.89616e-16 0.0 
1 -5.0338e-17 0.0 
1 1.62363e-17 0.0 
1 -4.92956e-16 0.0 
1 -2.60685e-14 0.0 
1 2.10803e-16 0.0 
1 2.43231e-15 0.0 
1 1.15937e-15 0.0 
1 -6.4206e-14 0.0 
1 1.98344e-16 0.0 
1 -1.93386e-15 0.0 
1 5.22179e-18 0.0 
1 3.39688e-17 0.0 
1 2.29823e-16 0.0 
1 1.08222e-16 0.0 
1 -2.02454e-16 0.0 
1 4.9369e-16 0.0 
1 2.80519e-16 0.0 
1 7.51904e-17 0.0 
1 -2.97123e-17 0.0 
1 -5.68531e-15 0.0 
1 -7.8044e-15 0.0 
1 -6.41854e-17 0.0 
1 -2.5888e-15 0.0 
1 -1.75748e-16 0.0 
1 7.83515e-16 0.0 
1 1.64376e-15 0.0 
1 -7.12768e-17 0.0 
1 2.45258e-16 0.0 
1 7.47889e-16 0.0 
1 -1.24849e-16 0.0 
1 1.72256e-16 0.0 
1 6.4868e-16 0.0 
1 -6.3569e-15 0.0 
1 -8.27493e-15 0.0 
1 -1.18538e-14 0.0 
1 1.83499e-16 0.0 
1 -2.57098e-16 0.0 
1 5.74102e-17 0.0 
1 1.0028e-16 0.0 
1 -3.94829e-17 0.0 
1 5.08051e-17 0.0 
1 1.2037e-16 0.0 
1 9.36701e-17 0.0 
1 1.60672e-16 0.0 
1 1.61262e-16 0.0 
1 -2.99362e-16 0.0 
1 -1.17227e-14 0.0 
1 -1.18325e-15 0.0 
1 -4.02777e-16 0.0 
1 2.29068e-15 0.0 
1 4.76549e-16 0.0 
1 1.50411e-15 0.0 
1 -2.98193e-16 0.0 
1 -3.94426e-14 0.0 
1 -2.41693e-16 0.0 
1 -2.27261e-16 0.0 
1 2.58522e-16 0.0 
1 6.32386e-17 0.0 
1 0 0.0 
1 -2.5925e-16 0.0 
1 5.20771e-16 0.0 
1 5.09802e-17 0.0 
1 2.18676e-16 0.0 
1 -1.92906e-16 0.0 
1 -4.92157e-16 0.0 
1 1.35046e-16 0.0 
1 3.79835e-16 0.0 
1 -1.61898e-16 0.0 
1 -4.53329e-17 0.0 
1 -4.08573e-17 0.0 
1 2.21551e-17 0.0 
1 3.15243e-15 0.0 
1 -2.98216e-16 0.0 
1 -1.14133e-16 0.0 
1 1.13796e-15 0.0 
1 1.55482e-15 0.0 
1 1.4547e-15 0.0 
1 1.99907e-17 0.0 
1 1.2491e-16 0.0 
1 1.15754e-15 0.0 
1 -4.10885e-15 0.0 
1 1.04509e-15 0.0 
1 -1.08157e-14 0.0 
1 1.38819e-15 0.0 
1 1.22372e-16 0.0 
1 1.01084e-16 0.0 
1 -1.64382e-16 0.0 
1 6.0968e-17 0.0 
1 -1.8046e-17 0.0 
1 1.35957e-16 0.0 
1 -7.02076e-16 0.0 
1 -1.72038e-15 0.0 
1 -1.37678e-16 0.0 
1 -1.81313e-16 0.0 
1 1.31643e-16 0.0 
1 -6.66964e-15 0.0 
1 1.79256e-16 0.0 
1 3.48225e-16 0.0 
1 -1.40963e-14 0.0 
1 -5.55001e-15 0.0 
1 1.50071e-16 0.0 
1 9.10969e-15 0.0 
1 1.70034e-17 0.0 
1 -3.74976e-17 0.0 
1 -4.42607e-17 0.0 
1 -1.46853e-14 0.0 
1 -1.45228e-16 0.0 
1 -7.86662e-16 0.0 
1 7.49782e-17 0.0 
1 -1.18319e-15 0.0 
1 -8.29196e-15 0.0 
1 -4.54543e-17 0.0 
1 -2.56086e-16 0.0 
1 6.38144e-15 0.0 
1 -1.00563e-13 0.0 
1 -5.61546e-16 0.0 
1 -1.73082e-16 0.0 
1 -1.98764e-16 0.0 
1 5.16049e-15 0.0 
1 3.15562e-16 0.0 
1 -2.59582e-14 0.0 
1 2.77142e-14 0.0 
1 3.24067e-16 0.0 
1 1.61513e-16 0.0 
1 2.84847e-16 0.0 
1 -6.52727e-16 0.0 
1 -1.29751e-15 0.0 
1 -2.77044e-17 0.0 
1 4.68611e-16 0.0 
1 4.52349e-17 0.0 
1 -8.78067e-16 0.0 
1 -1.6833e-15 0.0 
1 1.61483e-16 0.0 
1 3.50623e-15 0.0 
1 -2.38618e-15 0.0 
1 2.00983e-17 0.0 
1 -8.03521e-16 0.0 
1 9.77887e-16 0.0 
1 5.09564e-15 0.0 
1 2.59485e-16 0.0 
1 1.89348e-17 0.0 
1 1.20655e-15 0.0 
1 -1.40628e-16 0.0 
1 1.2098e-16 0.0 
1 -2.80796e-15 0.0 
1 1.00285e-16 0.0 
1 -8.92672e-16 0.0 
1 1.48912e-15 0.0 
1 2.01131e-16 0.0 
1 -8.03296e-17 0.0 
1 -8.04022e-19 0.0 
1 6.23885e-17 0.0 
1 2.41726e-14 0.0 
1 -3.11493e-17 0.0 
1 -4.17982e-15 0.0 
1 -2.10044e-16 0.0 
1 2.63465e-15 0.0 
1 -2.73703e-15 0.0 
1 -1.71937e-16 0.0 
1 1.30921e-16 0.0 
1 4.86507e-16 0.0 
1 -1.86103e-16 0.0 
1 1.02155e-15 0.0 
1 2.37362e-15 0.0 
1 2.63247e-16 0.0 
1 -5.98374e-17 0.0 
1 4.32232e-15 0.0 
1 -2.75148e-15 0.0 
1 1.37222e-16 0.0 
1 -1.94036e-16 0.0 
1 -2.64163e-16 0.0 
1 -1.0289e-16 0.0 
1 3.68479e-15 0.0 
1 -2.47639e-16 0.0 
1 -1.06629e-15 0.0 
1 6.53463e-17 0.0 
1 -5.87063e-17 0.0 
1 2.91038e-17 0.0 
1 2.10968e-17 0.0 
1 5.67896e-16 0.0 
1 -2.83641e-16 0.0 
1 -6.60308e-15 0.0 
1 -7.669e-16 0.0 
1 -1.51485e-16 0.0 
1 -5.57748e-17 0.0 
1 4.69838e-17 0.0 
1 4.91789e-15 0.0 
1 1.39277e-16 0.0 
1 -6.718e-15 0.0 
1 4.28029e-16 0.0 
1 -2.63946e-17 0.0 
1 3.099e-16 0.0 
1 -3.08525e-16 0.0 
1 3.37962e-17 0.0 
1 4.82944e-16 0.0 
1 -5.44348e-15 0.0 
1 2.72989e-16 0.0 
1 -1.11242e-15 0.0 
1 -1.1844e-15 0.0 
1 -1.60595e-15 0.0 
1 2.72435e-16 0.0 
1 7.38961e-15 0.0 
1 -8.39383e-14 0.0 
1 1.97455e-16 0.0 
1 -5.99524e-16 0.0 
1 -1.36694e-16 0.0 
1 3.67862e-17 0.0 
1 1.00045e-15 0.0 
1 -1.50297e-16 0.0 
1 1.39685e-16 0.0 
1 -1.87855e-16 0.0 
1 -7.50358e-17 0.0 
1 -1.34718e-14 0.0 
1 3.00748e-16 0.0 
1 2.19074e-16 0.0 
1 9.47529e-15 0.0 
1 -3.10076e-16 0.0 
1 -2.88535e-16 0.0 
1 1.61477e-16 0.0 
1 -1.94218e-15 0.0 
1 1.19255e-17 0.0 
1 9.90095e-16 0.0 
1 -7.25366e-15 0.0 
1 -1.10376e-16 0.0 
1 5.09649e-17 0.0 
1 -3.91834e-15 0.0 
1 -1.68786e-14 0.0 
1 1.43089e-16 0.0 
1 -5.34373e-17 0.0 
1 2.64785e-15 0.0 
1 1.66396e-15 0.0 
1 3.00958e-16 0.0 
1 -2.19076e-15 0.0 
1 6.88749e-16 0.0 
1 6.51895e-17 0.0 
1 -8.51821e-17 0.0 
1 -4.57865e-15 0.0 
1 4.2005e-17 0.0 
1 5.58117e-16 0.0 
1 2.04675e-16 0.0 
1 -1.5179e-14 0.0 
1 6.02137e-17 0.0 
1 -1.07255e-16 0.0 
1 2.6736e-15 0.0 
1 1.32337e-16 0.0 
1 2.3578e-16 0.0 
1 2.69843e-16 0.0 
1 1.16366e-16 0.0 
1 2.50505e-16 0.0 
1 -1.15158e-15 0.0 
1 -4.18444e-14 0.0 
1 1.703e-16 0.0 
1 -8.12835e-17 0.0 
1 6.75051e-16 0.0 
1 -1.34192e-16 0.0 
1 1.53718e-15 0.0 
1 -1.48645e-15 0.0 
1 -4.91547e-17 0.0 
1 -1.41265e-15 0.0 
1 4.63579e-17 0.0 
1 0 0.0 
1 -4.54657e-15 0.0 
1 -2.02015e-17 0.0 
1 4.565e-16 0.0 
1 -6.79486e-17 0.0 
1 0 0.0 
1 -1.51844e-16 0.0 
1 -4.4368e-17 0.0 
1 2.24447e-15 0.0 
1 -8.94817e-17 0.0 
1 4.29813e-15 0.0 
1 -1.81546e-15 0.0 
1 7.93314e-16 0.0 
1 -1.04196e-16 0.0 
1 -4.0217e-16 0.0 
1 -4.17043e-16 0.0 
1 1.84134e-16 0.0 
1 3.61968e-16 0.0 
1 2.99979e-15 0.0 
1 -5.24731e-15 0.0 
1 -2.21889e-14 0.0 
1 1.41416e-16 0.0 
1 -8.45844e-17 0.0 
1 5.94359e-17 0.0 
1 -1.24873e-16 0.0 
1 1.61363e-16 0.0 
1 -1.41118e-16 0.0 
1 -5.10148e-17 0.0 
1 6.47126e-16 0.0 
1 -1.69215e-16 0.0 
1 -6.1687e-15 0.0 
1 -1.32282e-15 0.0 
1 -6.35672e-17 0.0 
1 -2.92951e-15 0.0 
1 2.27856e-17 0.0 
1 -4.34193e-15 0.0 
1 8.97548e-17 0.0 
1 1.53187e-15 0.0 
1 3.84203e-20 0.0 
1 0 0.0 
1 1.9352e-17 0.0 
1 -5.39026e-15 0.0 
1 2.30935e-16 0.0 
1 -1.7984e-16 0.0 
1 1.87054e-16 0.0 
1 1.53123e-15 0.0 
1 -8.49412e-14 0.0 
1 5.2594e-18 0.0 
1 -1.0761e-15 0.0 
1 5.69542e-16 0.0 
1 1.56931e-16 0.0 
1 -1.00302e-15 0.0 
1 -1.02372e-16 0.0 
1 2.17635e-16 0.0 
1 -4.52431e-17 0.0 
1 -3.50432e-15 0.0 
1 7.40716e-17 0.0 
1 7.61052e-16 0.0 
1 -8.5046e-17 0.0 
1 8.69858e-16 0.0 
1 -1.73538e-14 0.0 
1 -6.40512e-16 0.0 
1 -1.95177e-15 0.0 
1 2.9139e-16 0.0 
1 -1.85102e-16 0.0 
1 -2.03705e-14 0.0 
1 1.37986e-15 0.0 
1 1.16886e-15 0.0 
1 4.24461e-16 0.0 
1 3.37662e-15 0.0 
1 3.07146e-15 0.0 
1 -1.4566e-14 0.0 
1 7.90857e-16 0.0 
1 7.58213e-16 0.0 
1 -9.24251e-15 0.0 
1 -1.46309e-16 0.0 
1 -1.15086e-15 0.0 
1 -2.02404e-16 0.0 
1 -4.56305e-17 0.0 
1 -3.76484e-16 0.0 
1 7.4577e-15 0.0 
1 4.05571e-16 0.0 
1 4.03904e-16 0.0 
1 1.69144e-16 0.0 
1 -3.09022e-16 0.0 
1 3.1673e-17 0.0 
1 1.02224e-16 0.0 
1 3.93915e-16 0.0 
1 5.82439e-16 0.0 
1 -5.13316e-17 0.0 
1 -8.40991e-17 0.0 
1 -9.03139e-17 0.0 
1 -8.46049e-17 0.0 
1 -1.92141e-15 0.0 
1 8.246e-16 0.0 
1 -7.83789e-16 0.0 
1 4.33151e-17 0.0 
1 -1.64627e-16 0.0 
1 -8.42509e-16 0.0 
1 -1.8287e-16 0.0 
1 -4.73724e-15 0.0 
1 3.25839e-16 0.0 
1 -1.37401e-16 0.0 
1 -4.22897e-16 0.0 
1 -3.55869e-16 0.0 
1 6.5191e-15 0.0 
1 -3.14143e-15 0.0 
1 2.50984e-15 0.0 
1 -2.46797e-16 0.0 
1 -2.55449e-15 0.0 
1 4.43981e-16 0.0 
1 -1.81023e-16 0.0 
1 5.42106e-16 0.0 
1 -1.21298e-14 0.0 
1 -1.52992e-17 0.0 
1 2.4417e-17 0.0 
1 -8.93928e-17 0.0 
1 0 0.0 
1 -2.79325e-15 0.0 
1 -2.90947e-15 0.0 
1 -2.12054e-16 0.0 
1 6.83728e-17 0.0 
1 -8.65206e-16 0.0 
1 5.66779e-16 0.0 
1 7.20571e-16 0.0 
1 3.32309e-17 0.0 
1 -4.27922e-15 0.0 
1 1.46988e-17 0.0 
1 1.25975e-16 0.0 
1 2.54595e-16 0.0 
1 -9.59488e-15 0.0 
1 2.77892e-17 0.0 
1 1.37647e-16 0.0 
1 -4.57693e-15 0.0 
1 -8.65106e-17 0.0 
1 -5.27545e-15 0.0 
1 -7.94523e-17 0.0 
1 5.31759e-17 0.0 
1 1.60937e-16 0.0 
1 -1.36251e-16 0.0 
1 -6.02628e-17 0.0 
1 -7.75852e-16 0.0 
1 -2.28509e-16 0.0 
1 9.24112e-18 0.0 
1 -4.53148e-17 0.0 
1 2.45896e-15 0.0 
1 3.05922e-17 0.0 
1 -8.27175e-16 0.0 
1 1.50326e-16 0.0 
1 4.36779e-14 0.0 
1 -2.74591e-17 0.0 
1 -6.74416e-16 0.0 
1 -3.84414e-17 0.0 
1 2.51734e-16 0.0 
1 7.92288e-17 0.0 
1 -1.68268e-16 0.0 
1 -9.63028e-16 0.0 
1 -1.92504e-15 0.0 
1 1.25905e-16 0.0 
1 -7.62977e-16 0.0 
1 -7.77471e-15 0.0 
1 5.73365e-17 0.0 
1 4.36424e-16 0.0 
1 -3.94523e-17 0.0 
1 -1.22292e-16 0.0 
1 -3.20213e-16 0.0 
1 -1.3456e-16 0.0 
1 8.72536e-17 0.0 
1 -1.96671e-15 0.0 
1 4.69114e-15 0.0 
1 -2.41791e-16 0.0 
1 -1.85501e-16 0.0 
1 1.36692e-16 0.0 
1 2.35528e-16 0.0 
1 -1.85161e-16 0.0 
1 -2.72224e-16 0.0 
1 3.28305e-15 0.0 
1 2.28222e-16 0.0 
1 1.77041e-16 0.0 
1 -2.70626e-16 0.0 
1 8.51517e-17 0.0 
1 -3.16307e-14 0.0 
1 -1.07981e-15 0.0 
1 -2.485e-17 0.0 
1 2.24649e-16 0.0 
1 3.85977e-17 0.0 
1 1.43504e-16 0.0 
1 4.64356e-17 0.0 
1 -1.88859e-14 0.0 
1 1.4392e-17 0.0 
1 1.76459e-17 0.0 
1 3.21458e-15 0.0 
1 4.22241e-16 0.0 
1 -7.23032e-17 0.0 
1 1.27607e-16 0.0 
1 2.42399e-14 0.0 
1 -6.52454e-17 0.0 
1 -4.50415e-15 0.0 
1 2.99326e-17 0.0 
1 -4.68187e-17 0.0 
1 3.23576e-17 0.0 
1 7.54971e-17 0.0 
1 -5.48679e-15 0.0 
1 -2.16066e-16 0.0 
1 1.31305e-15 0.0 
1 -2.12707e-16 0.0 
1 4.19498e-16 0.0 
1 -2.4e-16 0.0 
1 -8.73742e-18 0.0 
1 -1.62775e-16 0.0 
1 2.78252e-16 0.0 
1 -2.13835e-16 0.0 
1 9.03978e-16 0.0 
1 -4.65618e-16 0.0 
1 2.92617e-16 0.0 
1 9.38768e-17 0.0 
1 2.59479e-16 0.0 
1 3.04597e-15 0.0 
1 8.65782e-17 0.0 
1 -2.57839e-16 0.0 
1 0 0.0 
1 5.7803e-17 0.0 
1 1.01197e-16 0.0 
1 -5.33909e-15 0.0 
1 7.5811e-16 0.0 
1 0 0.0 
1 4.97503e-16 0.0 
1 -9.65556e-15 0.0 
1 -9.68624e-17 0.0 
1 -9.19367e-16 0.0 
1 1.27893e-16 0.0 
1 8.22648e-17 0.0 
1 -5.12886e-17 0.0 
1 -1.17972e-16 0.0 
1 -2.75044e-17 0.0 
1 1.35492e-16 0.0 
1 -1.79475e-16 0.0 
1 -8.24791e-16 0.0 
1 2.25012e-16 0.0 
1 4.27496e-16 0.0 
1 1.13755e-15 0.0 
1 1.22142e-17 0.0 
1 5.1019e-16 0.0 
1 1.29089e-16 0.0 
1 -4.30211e-14 0.0 
1 -4.16333e-17 0.0 
1 8.31733e-17 0.0 
1 -3.21296e-16 0.0 