<VTKFile type="UnstructuredGrid" version="0.1" byte_order="LittleEndian">
  <UnstructuredGrid>
    <Piece NumberOfPoints="17003" NumberOfCells="33813">
      <Points>
        <DataArray type = "Float64" NumberOfComponents="3" format="ascii">
0 0 0.0 
12 0 0.0 
12 4 0.0 
0 4 0.0 
3.31406 2.34582 0.0 
6.63049 0 0.0 
1.20574 0 0.0 
0 2.03118 0.0 
7.24453 2.38771 0.0 
3.67348 2.77181 0.0 
0 1.70279 0.0 
5.70474 3.0028 0.0 
11.3234 0 0.0 
3.65852 0 0.0 
3.63281 1.71 0.0 
2.34429 2.31645 0.0 
3.14822 0 0.0 
2.55098 0 0.0 
2.71479 2.29875 0.0 
12 2.91971 0.0 
5.36637 0 0.0 
11.586 4 0.0 
5.56762 2.5236 0.0 
5.1594 0 0.0 
9.53375 4 0.0 
12 3.17166 0.0 
3.83762 0 0.0 
6.06535 0 0.0 
4.10903 0 0.0 
0.686314 4 0.0 
4.83493 0 0.0 
5.57611 0 0.0 
2.73964 1.94301 0.0 
5.69255 2.48312 0.0 
5.88083 0 0.0 
3.41664 2.49495 0.0 
6.65285 0.0924063 0.0 
4.13308 3.16746 0.0 
9.40516 0 0.0 
11.3776 4 0.0 
9.22343 4 0.0 
8.14472 0 0.0 
3.20394 1.65158 0.0 
9.57869 0 0.0 
11.6531 0 0.0 
2.44342 2.44856 0.0 
3.50622 2.90992 0.0 
9.11 0 0.0 
3.1512 1.73001 0.0 
2.10308 1.51688 0.0 
2.68705 3.1842 0.0 
10.9845 4 0.0 
3.70393 1.43277 0.0 
10.7695 4 0.0 
10.4533 4 0.0 
7.96012 4 0.0 
3.07861 1.01665 0.0 
0.327913 4 0.0 
0.86775 4 0.0 
2.96628 1.82074 0.0 
12 3.55991 0.0 
5.30805 3.08669 0.0 
2.86325 3.07136 0.0 
3.84524 2.0751 0.0 
2.24141 0.93355 0.0 
5.15967 0.706857 0.0 
1.48145 4 0.0 
10.1923 4 0.0 
3.8579 2.4197 0.0 
7.76169 4 0.0 
8.14832 4 0.0 
2.47008 1.57778 0.0 
3.72506 2.6317 0.0 
1.7589 3.11795 0.0 
3.446 2.4356 0.0 
3.23515 4 0.0 
8.9402 4 0.0 
3.63538 2.73664 0.0 
8.4675 4 0.0 
5.37906 4 0.0 
4.19764 2.84393 0.0 
3.85074 1.48815 0.0 
5.9075 4 0.0 
6.96894 4 0.0 
7.16917 4 0.0 
6.65817 4 0.0 
6.4671 4 0.0 
5.18332 4 0.0 
6.19 4 0.0 
2.99921 1.80528 0.0 
4.27277 2.42795 0.0 
4.9753 4 0.0 
4.69058 4 0.0 
3.42751 2.46418 0.0 
3.32455 1.09341 0.0 
4.19 4 0.0 
4.44 4 0.0 
3.71691 4 0.0 
4.49045 1.41753 0.0 
3.41917 4 0.0 
3.25049 1.96086 0.0 
6.08555 0.864379 0.0 
2.88495 3.59818 0.0 
5.13828 1.03615 0.0 
1.65189 4 0.0 
3.5251 2.37338 0.0 
4.29277 1.68152 0.0 
3.4699 2.88409 0.0 
3.61125 2.98709 0.0 
3.23709 3.11447 0.0 
3.06206 0.904979 0.0 
3.30321 1.60633 0.0 
3.28525 0.859852 0.0 
6.34812 0.126926 0.0 
4.12142 1.0498 0.0 
3.88453 2.79033 0.0 
4.15655 1.57511 0.0 
3.4934 1.5864 0.0 
6.75831 3.5524 0.0 
4.45767 3.28104 0.0 
3.84371 1.42495 0.0 
2.45466 1.98095 0.0 
3.4924 1.49351 0.0 
3.98302 1.70511 0.0 
4.04028 2.89686 0.0 
3.79653 1.66326 0.0 
5.26583 1.61141 0.0 
1.90318 1.12354 0.0 
2.976 1.70283 0.0 
5.43986 3.13531 0.0 
2.4365 1.74673 0.0 
6.26186 0.795451 0.0 
6.21939 0 0.0 
5.70638 2.08713 0.0 
3.73989 1.58006 0.0 
2.58289 1.48101 0.0 
2.90675 1.51172 0.0 
2.41422 1.10454 0.0 
2.8483 1.49443 0.0 
4.71996 2.6528 0.0 
2.42609 1.71609 0.0 
4.00919 1.13421 0.0 
2.88532 3.73912 0.0 
4.41132 1.1173 0.0 
2.23931 1.01274 0.0 
4.92691 1.54806 0.0 
4.98612 2.95989 0.0 
3.74336 1.72195 0.0 
2.33306 3.00585 0.0 
3.77219 1.59036 0.0 
2.63174 3.12241 0.0 
3.29868 3.2289 0.0 
4.25269 2.28959 0.0 
3.13827 2.64378 0.0 
6.05034 2.56636 0.0 
5.05095 0.727725 0.0 
4.83421 0.860127 0.0 
2.26977 3.13237 0.0 
5.03283 3.13985 0.0 
0.264841 3.48641 0.0 
5.22777 2.65238 0.0 
3.46399 2.72354 0.0 
1.74002 1.8728 0.0 
4.62672 1.61969 0.0 
3.42861 1.0951 0.0 
5.54279 1.43606 0.0 
6.17193 0.7625 0.0 
7.41009 2.4744 0.0 
4.66302 1.46904 0.0 
1.79254 2.33178 0.0 
3.23793 1.58689 0.0 
3.28652 2.57496 0.0 
3.96259 1.1582 0.0 
4.48805 3.07548 0.0 
4.12065 1.60016 0.0 
3.25603 3.53864 0.0 
2.91281 1.05409 0.0 
6.51627 0.784134 0.0 
5.25053 1.00353 0.0 
2.83825 1.72261 0.0 
2.36576 2.33886 0.0 
4.2261 2.91259 0.0 
4.81502 1.60989 0.0 
3.07749 1.04387 0.0 
4.61332 1.12879 0.0 
4.50358 2.00899 0.0 
5.08579 1.5412 0.0 
5.45211 2.54094 0.0 
2.73981 1.57273 0.0 
3.83693 1.77691 0.0 
5.07574 2.88428 0.0 
3.67059 1.48802 0.0 
6.87014 3.1459 0.0 
3.35778 3.23125 0.0 
4.28938 0 0.0 
3.92976 1.77894 0.0 
3.01197 3.10432 0.0 
3.58964 1.91608 0.0 
5.72933 0 0.0 
4.76024 2.72868 0.0 
4.62976 2.65185 0.0 
6.95409 1.87707 0.0 
2.24087 2.35006 0.0 
2.23297 1.69801 0.0 
3.35328 2.07195 0.0 
3.37678 3.03063 0.0 
3.14065 2.1474 0.0 
5.91611 1.60985 0.0 
1.86557 1.15397 0.0 
3.88422 1.01837 0.0 
1.84243 2.58106 0.0 
8.84816 0.137396 0.0 
2.82473 0.928821 0.0 
5.27013 1.07311 0.0 
4.61911 3.58611 0.0 
1.72279 1.6506 0.0 
4.19511 1.6774 0.0 
1.86537 3.1847 0.0 
3.54231 1.61002 0.0 
5.53925 0.0892704 0.0 
3.83664 1.55534 0.0 
8.1218 0.847497 0.0 
1.98826 1.78815 0.0 
3.10637 1.97154 0.0 
6.02906 2.43616 0.0 
4.76892 3.09286 0.0 
12 2.70513 0.0 
11.0062 3.29442 0.0 
3.70985 2.84763 0.0 
0.279396 3.65515 0.0 
3.36717 1.44427 0.0 
3.13279 2.13472 0.0 
3.97489 1.51563 0.0 
2.62085 1.34774 0.0 
3.42852 2.89625 0.0 
2.46059 2.20856 0.0 
2.82946 1.5512 0.0 
2.89865 1.97698 0.0 
2.98414 2.02543 0.0 
3.31177 1.53178 0.0 
2.42347 3.11907 0.0 
4.56206 1.10441 0.0 
3.28433 1.0901 0.0 
4.83829 2.8654 0.0 
4.98774 1.56166 0.0 
8.06222 1.19049 0.0 
4.70828 2.60517 0.0 
2.53474 1.70239 0.0 
2.74591 2.64556 0.0 
3.22641 2.89426 0.0 
4.98126 0 0.0 
4.84191 0.395439 0.0 
4.49474 1.50718 0.0 
4.55433 1.58904 0.0 
8.48732 0.489253 0.0 
3.00862 1.87244 0.0 
4.48522 0.137869 0.0 
4.93697 0.726415 0.0 
1.81432 1.99126 0.0 
2.36294 2.89804 0.0 
9.25253 0.295556 0.0 
8.79952 1.46852 0.0 
3.1875 1.48006 0.0 
6.43286 0.741127 0.0 
2.48577 1.77406 0.0 
2.93756 2.23566 0.0 
1.68192 1.53042 0.0 
2.47065 2.57845 0.0 
3.09139 2.61908 0.0 
7.96701 0.66414 0.0 
3.80154 2.51885 0.0 
7.53265 0.369247 0.0 
1.42506 2.28846 0.0 
2.43403 1.15514 0.0 
4.22322 1.78007 0.0 
2.19301 1.96859 0.0 
5.9518 0.790961 0.0 
4.71437 0.34688 0.0 
3.09315 1.78758 0.0 
2.90977 1.90203 0.0 
3.71135 2.7551 0.0 
4.3335 1.50533 0.0 
7.30686 3.67474 0.0 
2.33575 1.11622 0.0 
3.03719 1.9749 0.0 
0.788891 0.259875 0.0 
1.668 1.78185 0.0 
1.86181 2.07466 0.0 
5.52122 1.55502 0.0 
4.26937 1.26606 0.0 
3.10001 1.95041 0.0 
1.53323 0.279024 0.0 
6.75511 3.69678 0.0 
2.70379 2.99025 0.0 
4.75604 3.59972 0.0 
7.41431 2.59854 0.0 
2.12348 3.66575 0.0 
2.73152 1.04876 0.0 
5.17176 2.67966 0.0 
5.61235 2.65942 0.0 
2.91648 0.868378 0.0 
6.34165 0.730279 0.0 
2.93526 1.59995 0.0 
5.16314 1.09618 0.0 
2.76746 1.52902 0.0 
8.29532 0.322978 0.0 
4.56933 1.77241 0.0 
1.67945 1.83685 0.0 
2.8045 2.28549 0.0 
6.72239 0.740716 0.0 
2.19123 3.13121 0.0 
5.38992 3.19587 0.0 
3.71577 1.71994 0.0 
1.39082 0.231455 0.0 
6.61057 0.755749 0.0 
6.05864 0.761275 0.0 
7.9109 0.226585 0.0 
2.70484 0.302168 0.0 
3.38662 1.69127 0.0 
3.81221 0.24023 0.0 
2.81279 0.235683 0.0 
2.46678 2.93467 0.0 
3.69278 3.02525 0.0 
3.44818 3.17461 0.0 
2.69162 1.03456 0.0 
7.59734 0.264606 0.0 
2.79262 2.2797 0.0 
7.04069 2.82425 0.0 
6.10243 2.16054 0.0 
0.648779 0.326291 0.0 
6.7356 0.841442 0.0 
10.6421 0.309707 0.0 
3.7021 1.5365 0.0 
2.68441 1.94355 0.0 
3.54656 0.304044 0.0 
8.89903 0.432556 0.0 
2.74104 3.09879 0.0 
3.8786 0.658264 0.0 
3.67993 0.29948 0.0 
3.9229 0.301618 0.0 
3.36769 2.47013 0.0 
1.10611 0.360274 0.0 
0.392089 1.25988 0.0 
2.91195 0.295792 0.0 
4.07717 0.841594 0.0 
0.592035 1.29352 0.0 
8.73609 0.462419 0.0 
0.91605 0.267189 0.0 
3.38464 2.11599 0.0 
4.96634 1.44568 0.0 
3.40756 2.0198 0.0 
9.83544 0.406676 0.0 
5.85831 0.75539 0.0 
3.13868 1.47484 0.0 
3.39041 0.259745 0.0 
11.7949 3.27333 0.0 
8.84921 0.550813 0.0 
3.04308 0.329578 0.0 
9.69144 0.453986 0.0 
3.40564 1.7889 0.0 
2.50379 0.340076 0.0 
7.46041 0.214219 0.0 
7.48474 3.44883 0.0 
11.6879 3.08491 0.0 
0.889748 3.77849 0.0 
4.61094 1.68453 0.0 
3.97884 0 0.0 
2.60083 0.261896 0.0 
5.1094 2.83387 0.0 
4.24953 0.249309 0.0 
2.39059 0.244025 0.0 
6.90553 3.67768 0.0 
3.21102 0.283024 0.0 
4.98663 2.03053 0.0 
1.74862 0.252482 0.0 
1.87864 0.279816 0.0 
3.8815 1.61608 0.0 
2.94907 0.140112 0.0 
1.16169 3.83335 0.0 
11.16 0.43176 0.0 
5.7392 1.54182 0.0 
4.28924 1.49827 0.0 
10.0094 0.430538 0.0 
0.261487 2.62943 0.0 
3.94883 0.142224 0.0 
7.0657 0.711615 0.0 
3.11785 3.03778 0.0 
7.44289 4 0.0 
4.04678 0.169962 0.0 
10.3407 0.447423 0.0 
4.39489 0.226565 0.0 
3.27771 2.83077 0.0 
2.56535 3.01775 0.0 
4.23817 0.825156 0.0 
2.01608 0.349671 0.0 
9.38355 0.347739 0.0 
8.33331 0.475075 0.0 
11.6514 0.196156 0.0 
3.05749 0.170675 0.0 
2.72242 2.93104 0.0 
4.04232 0.347411 0.0 
0.345859 1.65545 0.0 
0.254655 3.07263 0.0 
4.14358 3.01934 0.0 
1.26412 0.344721 0.0 
2.42523 3.62492 0.0 
2.97383 3.25309 0.0 
4.81141 0.759599 0.0 
1.63652 0.328383 0.0 
3.07852 2.54231 0.0 
2.54977 3.62738 0.0 
3.5103 1.93235 0.0 
10.7931 0.252749 0.0 
3.7915 1.11184 0.0 
3.55217 3.15805 0.0 
7.09379 3.73179 0.0 
11.5549 2.66118 0.0 
11.7998 2.90097 0.0 
1.74033 3.78431 0.0 
10.1945 0.432411 0.0 
0.77851 3.71435 0.0 
7.98824 1.3688 0.0 
11.6807 1.65299 0.0 
0.663521 3.71478 0.0 
11.712 2.20934 0.0 
5.36228 2.54884 0.0 
7.00276 0.58601 0.0 
3.81249 3.64695 0.0 
11.6929 1.16857 0.0 
11.6509 1.86154 0.0 
7.78222 3.74707 0.0 
0.493509 1.11148 0.0 
3.49114 3.58122 0.0 
2.66231 3.57235 0.0 
2.77858 1.80777 0.0 
11.8092 1.86218 0.0 
4.28951 1.72378 0.0 
11.791 3.51504 0.0 
3.83382 0.104698 0.0 
0.0933318 1.56523 0.0 
3.14692 3.26293 0.0 
0.307984 0.903698 0.0 
0.137416 1.42501 0.0 
12 3.37387 0.0 
6.02093 3.7465 0.0 
0.276841 2.32856 0.0 
1.74983 3.17925 0.0 
4.68435 3.00125 0.0 
11.3914 1.82536 0.0 
2.83225 0.106025 0.0 
0.568412 3.83855 0.0 
3.1275 3.57683 0.0 
1.29226 3.91026 0.0 
2.28168 3.08743 0.0 
1.06029 3.71859 0.0 
2.77335 3.64322 0.0 
4.07389 1.73794 0.0 
4.67886 3.70667 0.0 
0.625171 3.5678 0.0 
4.26482 3.63502 0.0 
2.27672 3.63916 0.0 
6.44036 3.74863 0.0 
4.36829 3.26239 0.0 
2.00051 2.0905 0.0 
6.17065 3.67657 0.0 
3.80086 3.00169 0.0 
5.0636 1.71513 0.0 
3.87639 2.2886 0.0 
2.98922 3.61295 0.0 
0.543289 3.68688 0.0 
4.98393 2.89772 0.0 
7.36021 2.67505 0.0 
3.98216 3.12726 0.0 
1.90078 3.75655 0.0 
5.51887 3.56302 0.0 
5.891 3.8418 0.0 
4.96631 3.62176 0.0 
6.63875 3.63982 0.0 
5.07822 3.5357 0.0 
2.20126 2.40635 0.0 
2.74827 1.49555 0.0 
6.0208 1.4863 0.0 
2.99635 0 0.0 
5.89351 3.55377 0.0 
6.1928 3.83405 0.0 
[...]
<PointData>
  <DataArray type = "Float64" Name="Vitesse" NumberOfComponents="3" format="ascii">
1 0 0.0 
1.06677 0 0.0 
1.06753 0 0.0 
1 0 0.0 
1.06844 0.0325764 0.0 
1.07709 0 0.0 
1.00831 0 0.0 
1 0 0.0 
0.891332 -0.0106108 0.0 
1.12973 0.00894393 0.0 
1 0 0.0 
1.08481 -0.00792708 0.0 
1.06732 0 0.0 
1.08986 0 0.0 
0.877418 0.0474095 0.0 
0.946976 0.13408 0.0 
1.07706 0 0.0 
1.05226 0 0.0 
1.09237 0.186663 0.0 
1.04401 -0.00337595 0.0 
1.08581 0 0.0 
1.0679 0 0.0 
1.01218 -0.016941 0.0 
1.08764 0 0.0 
1.07 0 0.0 
1.06402 -0.00138361 0.0 
1.09216 0 0.0 
1.08039 0 0.0 
1.09363 0 0.0 
1.00224 0 0.0 
1.0904 0 0.0 
1.08405 0 0.0 
-3.97657e-71 0 0.0 
0.983736 -0.0171404 0.0 
1.08169 0 0.0 
1.15329 0.0285447 0.0 
1.07701 0.00046033 0.0 
1.10442 -0.00222765 0.0 
1.06942 0 0.0 
1.06808 0 0.0 
1.07045 0 0.0 
1.07175 0 0.0 
1.10812 -0.0657353 0.0 
1.06918 0 0.0 
1.06707 0 0.0 
1.00572 0.133716 0.0 
1.12025 0.0215975 0.0 
1.06985 0 0.0 
0.966717 -0.0655757 0.0 
0.978665 -0.0671497 0.0 
1.06241 0.0432989 0.0 
1.06841 0 0.0 
1.1386 0.00439357 0.0 
1.0686 0 0.0 
1.06891 0 0.0 
1.07291 0 0.0 
1.09954 -0.0467133 0.0 
1.0005 0 0.0 
1.00381 0 0.0 
0.678743 -0.0697684 0.0 
1.06814 -0.000344032 0.0 
1.08876 -0.00852885 0.0 
1.07812 0.0491232 0.0 
0.247039 -0.0294856 0.0 
1.03063 -0.0454265 0.0 
1.08956 0.00682951 0.0 
1.01315 0 0.0 
1.06919 0 0.0 
1.04739 -0.031773 0.0 
1.07344 0 0.0 
1.07246 0 0.0 
1.01147 -0.14381 0.0 
1.136 -9.33159e-05 0.0 
1.01076 0.0255023 0.0 
1.13268 0.0168463 0.0 
1.07931 0 0.0 
1.0709 0 0.0 
1.13326 0.0109785 0.0 
1.07178 0 0.0 
1.08613 0 0.0 
1.11083 -0.0100932 0.0 
1.11416 0.0198182 0.0 
1.08202 0 0.0 
1.07615 0 0.0 
1.07536 0 0.0 
1.07756 0 0.0 
1.07855 0 0.0 
1.08778 0 0.0 
1.08016 0 0.0 
0.73919 -0.0733142 0.0 
1.00503 -0.0349187 0.0 
1.08952 0 0.0 
1.09168 0 0.0 
1.14662 0.0240963 0.0 
1.11791 -0.03428 0.0 
1.09365 0 0.0 
1.09304 0 0.0 
1.09036 0 0.0 
1.08376 0.0233941 0.0 
1.08455 0 0.0 
-3.97657e-71 0 0.0 
1.08176 0.00578171 0.0 
1.0684 0.0175624 0.0 
1.09065 0.0108942 0.0 
1.01751 0 0.0 
1.05822 -0.0101984 0.0 
0.861031 0.0441023 0.0 
1.12183 0.0245149 0.0 
1.11571 0.0146445 0.0 
1.0993 0.0317339 0.0 
1.09233 -0.0403859 0.0 
1.1361 -0.0433197 0.0 
1.101 -0.0281244 0.0 
1.0787 0.000743985 0.0 
1.11068 0.00649446 0.0 
1.12253 -0.0025493 0.0 
1.022 0.0363681 0.0 
1.11893 -0.00263505 0.0 
1.07766 -0.00207109 0.0 
1.0983 -0.00499252 0.0 
1.12723 0.0132677 0.0 
0.427917 -0.151635 0.0 
1.15266 -0.0152539 0.0 
0.834243 0.0517156 0.0 
1.11389 -0.00498727 0.0 
0.948905 0.0454535 0.0 
0.921764 0.0241989 0.0 
1.00685 -0.0387492 0.0 
1.07307 -0.119505 0.0 
1.08732 -0.00763331 0.0 
0.948646 -0.193576 0.0 
1.08055 0.00484611 0.0 
1.07941 0 0.0 
0.610175 -0.00807333 0.0 
1.07695 0.026542 0.0 
1.04984 -0.128982 0.0 
1.12374 -0.118256 0.0 
1.03882 -0.0648447 0.0 
1.11079 -0.121527 0.0 
1.08588 -0.0188099 0.0 
0.959263 -0.176457 0.0 
1.1163 0.00579584 0.0 
1.06704 0.0111382 0.0 
1.10465 0.0123681 0.0 
1.028 -0.0504748 0.0 
0.993938 0.0264058 0.0 
1.09294 -0.0110396 0.0 
0.822272 0.0547591 0.0 
1.03385 0.0524209 0.0 
1.06044 0.0306686 0.0 
1.05877 0.0481547 0.0 
1.09623 0.024589 0.0 
0.790528 -0.0450107 0.0 
1.13275 0.0680132 0.0 
1.0209 -0.0127844 0.0 
1.0909 0.0071735 0.0 
1.09441 0.00891007 0.0 
1.03284 0.0419194 0.0 
1.09185 -0.00849399 0.0 
1.00023 0.00113282 0.0 
1.0703 -0.0156436 0.0 
1.13645 0.0264101 0.0 
0.965153 -0.0118617 0.0 
0.935302 0.0339417 0.0 
1.12085 -0.0264717 0.0 
1.03769 0.0161636 0.0 
1.08103 0.00487825 0.0 
0.945642 -0.00933709 0.0 
1.05668 0.0248296 0.0 
0.970583 0.0263422 0.0 
1.15178 -0.0620754 0.0 
1.15116 0.0515875 0.0 
1.11858 0.00499803 0.0 
1.10053 -0.00827548 0.0 
0.998574 0.0391005 0.0 
1.08492 0.0149747 0.0 
1.08859 -0.0578139 0.0 
1.07912 0.0041701 0.0 
1.08926 0.0100553 0.0 
1.07578 -0.151161 0.0 
0.95912 0.138516 0.0 
1.1087 -0.00870138 0.0 
0.938453 0.0304181 0.0 
1.1011 -0.0486297 0.0 
1.09981 0.0134965 0.0 
0.397717 -0.0011898 0.0 
0.991696 0.0239063 0.0 
1.02485 -0.0174875 0.0 
1.09322 -0.149613 0.0 
0.654231 0.0590631 0.0 
1.09118 -0.0118966 0.0 
1.13486 0.00691733 0.0 
1.07796 -0.0036676 0.0 
1.0981 0.0222782 0.0 
1.09361 0 0.0 
0.648364 0.0564301 0.0 
1.08754 0.0419926 0.0 
0.176576 0.0451517 0.0 
1.08285 0 0.0 
1.09281 -0.0162437 0.0 
1.08927 -0.0192249 0.0 
0.712185 0.00694052 0.0 
0.95105 0.096068 0.0 
0.941311 -0.0959405 0.0 
-3.97657e-71 0 0.0 
1.1093 0.027443 0.0 
0.374777 0.0299796 0.0 
0.911355 0.0178527 0.0 
1.00434 -0.0374779 0.0 
1.11459 -0.00115924 0.0 
0.986698 0.0377186 0.0 
1.07041 0.000242346 0.0 
1.07645 -0.0499848 0.0 
1.08879 0.0108492 0.0 
1.09374 -0.00287878 0.0 
0.976025 -0.0249157 0.0 
0.873908 0.0456282 0.0 
1.01552 0.0269279 0.0 
1.08758 0.0105954 0.0 
1.08445 0.00074254 0.0 
1.08125 0.0280033 0.0 
1.07311 0.00208663 0.0 
0.945716 -0.036347 0.0 
-3.97657e-71 0 0.0 
0.940029 -0.0159542 0.0 
1.09575 -0.0091348 0.0 
0.999521 -0.00592479 0.0 
1.06809 -0.00073178 0.0 
1.12384 0.00805674 0.0 
1.0003 0.000831504 0.0 
1.1574 -0.0379327 0.0 
0.298168 0.0272945 0.0 
1.08855 0.0275169 0.0 
1.05997 -0.102673 0.0 
1.12016 0.0273705 0.0 
0.921285 0.238907 0.0 
1.11262 -0.135262 0.0 
-3.97657e-71 0 0.0 
-3.97657e-71 0 0.0 
1.16048 -0.0468353 0.0 
1.04288 0.0464644 0.0 
1.10092 0.0128259 0.0 
1.11612 -0.0372049 0.0 
1.09503 -0.0129656 0.0 
0.979711 0.0260303 0.0 
1.05548 0.00414612 0.0 
1.07702 -0.0207098 0.0 
1.01532 -0.203719 0.0 
1.08042 0.102252 0.0 
1.11317 0.0427825 0.0 
1.08918 0 0.0 
1.09157 0.00344265 0.0 
1.0467 0.0286241 0.0 
0.975449 0.0333674 0.0 
1.07185 0.000988493 0.0 
0.349362 -0.0357468 0.0 
1.09317 0.000710552 0.0 
1.09226 0.00717557 0.0 
0.956068 -0.00236791 0.0 
1.03267 0.0623382 0.0 
1.07 0.000447589 0.0 
0.966374 0.00645262 0.0 
1.15596 -0.0705385 0.0 
1.07947 0.00412447 0.0 
0.962429 -0.23517 0.0 
0.909814 0.0953341 0.0 
0.983751 -0.0266907 0.0 
1.02748 0.109476 0.0 
1.13143 0.0761404 0.0 
1.07355 0.00168886 0.0 
1.11815 -0.0149467 0.0 
1.07392 0.00116952 0.0 
0.984855 0.0100254 0.0 
1.03919 -0.0706178 0.0 
0.656581 0.0464125 0.0 
0.872482 -0.0184918 0.0 
1.08256 0.00567417 0.0 
1.09253 0.00274534 0.0 
0.778142 -0.0623345 0.0 
0.213196 -0.0202426 0.0 
1.12994 0.00590134 0.0 
1.05957 0.0296335 0.0 
1.07521 -0.00113534 0.0 
1.03132 -0.062588 0.0 
-3.97657e-71 0 0.0 
1.00298 -0.00222401 0.0 
0.973211 -0.0155607 0.0 
0.951489 0.00754114 0.0 
0.966656 0.0198733 0.0 
1.1095 0.0157097 0.0 
-3.97657e-71 0 0.0 
1.0141 -0.00673445 0.0 
1.07738 -0.0014074 0.0 
1.06634 0.0591806 0.0 
1.09248 -0.00313577 0.0 
1.00821 -0.00777574 0.0 
1.03214 0.0133293 0.0 
1.07113 -0.0625571 0.0 
1.07674 -0.0152894 0.0 
1.06286 -0.0131719 0.0 
1.08131 -0.0431102 0.0 
1.07994 0.00427176 0.0 
1.13481 -0.128915 0.0 
1.09007 0.0116148 0.0 
1.09655 -0.136397 0.0 
1.0718 0.000713303 0.0 
0.689771 0.0370311 0.0 
0.970678 -0.0125304 0.0 
1.0842 0.157798 0.0 
1.07802 0.00352949 0.0 
1.02821 0.0396473 0.0 
1.08769 -0.0071741 0.0 
0.832911 0.0537822 0.0 
1.01122 -0.00473744 0.0 
1.07858 0.003823 0.0 
1.08176 0.00516863 0.0 
1.07254 0.000598206 0.0 
1.05984 -0.0137212 0.0 
0.997551 -0.00117635 0.0 
1.09344 -0.00236941 0.0 
1.06445 -0.0102394 0.0 
1.04331 0.0626422 0.0 
1.11361 0.0104774 0.0 
1.10318 0.020096 0.0 
1.06691 -0.0616735 0.0 
1.07351 0.000811974 0.0 
1.08064 0.160621 0.0 
1.06664 -0.00526086 0.0 
0.688146 -0.0112618 0.0 
1.00185 -0.00214286 0.0 
1.07814 0.00397446 0.0 
1.06835 0.000299259 0.0 
1.11347 0.0162188 0.0 
-3.97657e-71 0 0.0 
1.09039 -0.00608264 0.0 
1.07092 0.000745057 0.0 
1.06774 0.0493217 0.0 
1.10179 -0.00381645 0.0 
1.09259 -0.00445162 0.0 
1.09493 -0.00188141 0.0 
1.15277 0.0362233 0.0 
1.00606 -0.00498402 0.0 
0.999747 -0.00253541 0.0 
1.06945 -0.0124374 0.0 
1.10569 0.00178856 0.0 
0.999372 -0.00412316 0.0 
1.0713 0.000846218 0.0 
1.00413 -0.00287359 0.0 
0.18247 -0.0367722 0.0 
1.05263 0.0210975 0.0 
-3.97657e-71 0 0.0 
1.06947 0.000501131 0.0 
1.08318 0.00567482 0.0 
1.15131 -0.0786222 0.0 
1.08615 -0.00678218 0.0 
1.06686 -0.000848345 0.0 
1.07134 0.000973184 0.0 
1.07534 -0.0127902 0.0 
1.06977 0.000595397 0.0 
0.668974 0.0362656 0.0 
1.05025 -0.0156887 0.0 
1.07384 0.000704813 0.0 
1.07518 -0.00174269 0.0 
1.06014 -0.001286 0.0 
1.00376 0.00214655 0.0 
0.844028 0.0367406 0.0 
1.09321 0 0.0 
1.05471 -0.0119463 0.0 
1.08983 -0.0125514 0.0 
1.0948 0.000477493 0.0 
1.04487 -0.010906 0.0 
1.07675 -0.00138554 0.0 
1.08097 -0.00930198 0.0 
0.496541 -0.00418194 0.0 
1.02004 -0.007536 0.0 
1.02405 -0.00936175 0.0 
1.01089 0.039418 0.0 
1.0698 -0.00571431 0.0 
1.00712 0.00245146 0.0 
1.06812 0.000379152 0.0 
0.970329 0.0174391 0.0 
1.06634 0.0291097 0.0 
1.06931 0.000503089 0.0 
0.999829 0.00136313 0.0 
1.09356 -0.000864758 0.0 
1.0765 0.00282159 0.0 
1.0974 0.0414982 0.0 
1.07442 0 0.0 
1.09416 -0.000538054 0.0 
1.06895 0.000473791 0.0 
1.09413 0.000971244 0.0 
1.12111 0.0416736 0.0 
1.05341 0.0566759 0.0 
1.1031 0.00444063 0.0 
1.02854 -0.0131 0.0 
1.06993 0.000502185 0.0 
1.07213 0.00103151 0.0 
1.06728 0.000158493 0.0 
1.07433 -0.00652853 0.0 
1.06917 0.0647853 0.0 
1.09585 -0.000975116 0.0 
0.999491 -0.00137505 0.0 
1.00004 0.00153036 0.0 
1.10802 -0.00476638 0.0 
1.00842 -0.00589263 0.0 
1.04563 0.0171581 0.0 
1.0799 0.0340526 0.0 
1.09408 0.00749552 0.0 
1.01641 -0.00877448 0.0 
1.13997 0.0861331 0.0 
1.05175 0.0173395 0.0 
0.101057 0.0360021 0.0 
1.0681 0.000235726 0.0 
1.12083 -0.00340042 0.0 
1.10595 0.0159512 0.0 
1.07589 -0.00104528 0.0 
0.989335 -0.00371105 0.0 
1.04122 -0.00200953 0.0 
1.01937 0.00625649 0.0 
1.06909 0.000477229 0.0 
1.00269 0.00230237 0.0 
1.01566 0.00588608 0.0 
0.885985 0.0041832 0.0 
1.0019 0.00187641 0.0 
0.843642 -0.00323148 0.0 
1.03202 -0.0177203 0.0 
1.07639 0.002418 0.0 
1.09437 0.00370393 0.0 
1.03013 0.00230348 0.0 
0.829661 0.00234203 0.0 
1.07362 -0.000697311 0.0 
0.99989 -0.00347564 0.0 
1.09064 0.00951546 0.0 
1.05757 0.0199921 0.0 
0.896674 -0.123349 0.0 
0.831109 0.00201947 0.0 
0.779654 0.045357 0.0 
1.0683 -0.00044275 0.0 
1.09255 -0.000999844 0.0 
0.999975 -0.000418976 0.0 
1.0886 0.0285652 0.0 
1.0001 -0.00199036 0.0 
0.999957 -0.000748598 0.0 
1.06753 -0.000649344 0.0 
1.08145 -0.00170882 0.0 
0.999659 0.000830649 0.0 
1.01204 0.0236308 0.0 
1.09777 -0.0104889 0.0 
0.834696 0.00278776 0.0 
1.06476 -0.0045574 0.0 
1.00145 0.000890379 0.0 
1.07933 0.015699 0.0 
1.00929 0.00161212 0.0 
1.0325 0.0450926 0.0 
1.00547 0.00354063 0.0 
1.06265 0.0161019 0.0 
0.753277 0.0517937 0.0 
1.09256 -0.0020913 0.0 
1.00151 0.00254196 0.0 
1.09557 -0.000725254 0.0 
1.03865 0.0156493 0.0 
1.0789 -0.00137532 0.0 
1.09962 -0.00442253 0.0 
0.931597 0.015194 0.0 
1.08058 -0.00202867 0.0 
1.11413 0.00551432 0.0 
0.796392 0.0282314 0.0 
0.81159 -0.052306 0.0 
1.07297 0.015899 0.0 
1.00123 0.00160252 0.0 
1.09277 -0.0120144 0.0 
1.0351 -0.00655064 0.0 
1.1073 0.000721085 0.0 
1.02429 0.00821432 0.0 
1.0856 -0.0036003 0.0 
1.08224 -0.00112593 0.0 
1.09046 -0.00324419 0.0 
1.07805 -0.00177933 0.0 
1.08971 -0.00411811 0.0 
0.964198 0.0847818 0.0 
1.08963 -0.130016 0.0 
0.999432 0.0145434 0.0 
1.07135 0 0.0 
1.08267 -0.00319005 0.0 
1.08023 -0.00102494 0.0 
1.10419 -0.00493912 0.0 
1.07629 -0.000757699 0.0 
1.0902 0.0132675 0.0 
1.09305 0.0101772 0.0 
0.81361 -0.0767968 0.0 
1.08141 -0.00254559 0.0 
1.07818 -0.00274212 0.0 
1.08729 -0.0142959 0.0 
0.995864 0.0193284 0.0 
0.887277 0.0201861 0.0 
1.06933 -0.000263494 0.0 
1.05934 -0.0157706 0.0 
1.0848 -0.00201276 0.0 
1.10252 0.00935035 0.0 
1.09114 -0.002204 0.0 
1.08079 0.00896746 0.0 
0.820191 0.0011124 0.0 
0.921982 0.0323136 0.0 
0.935903 0.0250505 0.0 
1.10097 -0.00270322 0.0 
0.507586 -0.0576771 0.0 
1.11617 0.0185566 0.0 
1.07326 -0.000329395 0.0 
1.11553 0.0260235 0.0 
0.992304 -0.0994494 0.0 
1.09041 0.00788149 0.0 
1.11199 0.00785792 0.0 
1.07493 -0.00175724 0.0 
1.08137 0.1698 0.0 
-3.97657e-71 0 0.0 
1.08908 -0.0027114 0.0 
1.08708 -0.00347625 0.0 
-3.97657e-71 0 0.0 
1.11452 0.00873069 0.0 
1.01555 0.00428852 0.0 
1.10085 0.166135 0.0 
1.11915 0.00819661 0.0 
0.959921 0.00822927 0.0 
1.07201 -0.000430686 0.0 
1.02327 0.0132559 0.0 
1.07006 -0.000732794 0.0 
1.09337 -0.0512466 0.0 
0.816935 0.0426127 0.0 
1.06364 0.072977 0.0 
1.0794 -0.000931737 0.0 
1.10747 0.0104565 0.0 
0.902411 -0.340301 0.0 
1.08845 -0.0016709 0.0 
1.07512 -0.0339933 0.0 
1.12751 -0.108496 0.0 
1.0777 -0.00509654 0.0 
0.899106 0.00833534 0.0 
0.503786 0.0631715 0.0 
1.074 -0.000321312 0.0 
1.08758 -0.00215906 0.0 
0.954873 0.00443994 0.0 
0.664268 0.00150888 0.0 
0.97379 -0.0629513 0.0 
0.6746 0.00316872 0.0 
1.08039 0.14082 0.0 
0.953157 -0.07973 0.0 
1.1067 -0.00938276 0.0 
1.09825 -0.0504728 0.0 
0.74008 0.00291296 0.0 
0.972046 0.0116856 0.0 
0.913062 0.0186103 0.0 
1.06872 -0.000161402 0.0 
1.00181 -0.0169325 0.0 
1.08214 -0.00254233 0.0 
1.07362 0.00198808 0.0 
1.1045 -0.056833 0.0 
1.00423 -0.0226399 0.0 
1.09406 0.0107662 0.0 
1.07555 -0.0407363 0.0 
1.13819 -0.11845 0.0 
1.01661 0.00593788 0.0 
1.11938 -0.000248004 0.0 
1.10755 -0.00762577 0.0 
1.1149 -0.080423 0.0 
1.0976 -0.012672 0.0 
1.12152 -0.0233544 0.0 
1.08104 -0.00494274 0.0 
1.08352 -0.00352031 0.0 
1.03702 0.00527121 0.0 
0.952372 0.0217866 0.0 
1.10513 0.00495403 0.0 
1.09527 -0.0116758 0.0 
0.406141 0.0143753 0.0 
0.957308 -0.0743505 0.0 
1.06973 -0.00053321 0.0 
0.0975808 0.0270821 0.0 
1.15891 -0.0314484 0.0 
1.06772 0.00324658 0.0 
0.946845 -0.0935889 0.0 
1.03185 -0.0528039 0.0 
0.70043 0.049969 0.0 
1.11196 0.0152679 0.0 
1.06582 0.00321276 0.0 
0.925471 -0.0204095 0.0 
1.10331 -0.00284128 0.0 
1.08159 -0.00627689 0.0 
0.995127 0.0227359 0.0 
1.09387 -0.0103983 0.0 
1.03985 0.0333703 0.0 
1.16028 -0.0370612 0.0 
0.870385 -0.0654448 0.0 
0.742194 0.00999386 0.0 
0.516285 0.0547476 0.0 
1.0717 -0.000209715 0.0 
0.902783 0.0210568 0.0 
0.697193 -0.00203808 0.0 
1.08219 -0.00602042 0.0 
1.074 -0.00105872 0.0 
1.07414 -0.000865669 0.0 
0.975087 0.0158164 0.0 
1.04114 -0.00656282 0.0 
1.07257 0.00118747 0.0 
1.12435 -0.144474 0.0 
1.05251 0.046864 0.0 
1.10453 -0.00265832 0.0 
1.03953 -0.145574 0.0 
1.08575 0.0107491 0.0 
1.11023 0.0198421 0.0 
1.06973 -0.000812825 0.0 
0.90218 0.0387112 0.0 
1.07857 0.00232083 0.0 
1.07307 0.00140453 0.0 
1.01906 -0.0158847 0.0 
1.08556 -0.00970833 0.0 
1.06875 0 0.0 
1.07227 0.00254832 0.0 
1.09306 -0.00864865 0.0 
1.10122 0.0362858 0.0 
1.05793 -0.00578142 0.0 
1.07025 0.00268159 0.0 
1.04334 0.0374644 0.0 
0.810641 0.0200474 0.0 
1.09097 -0.00948656 0.0 
1.01297 -0.0218359 0.0 
1.08578 -0.00706219 0.0 
1.05502 -0.0192697 0.0 
0.80328 0.0108211 0.0 
1.12496 -0.00279877 0.0 
1.09092 -0.0332688 0.0 
1.08643 -0.007463 0.0 
1.1108 0.00179362 0.0 
1.02847 -0.131914 0.0 
1.11077 -0.00631014 0.0 
0.759785 0.0043816 0.0 
1.08308 -0.00617069 0.0 
1.10888 -0.00363563 0.0 
0.978827 -0.222058 0.0 
1.10773 -0.00619302 0.0 
0.942802 -0.0758494 0.0 
1.11024 -0.00464129 0.0 
0.672879 0.00595784 0.0 
0.964906 -0.0681509 0.0 
1.01485 0.0397788 0.0 
1.09575 0.0114152 0.0 
1.07771 -0.00452359 0.0 
1.06399 -0.016885 0.0 
1.10142 0.0445734 0.0 
1.02906 0.0572523 0.0 
0.746037 0.00890372 0.0 
0.671027 -0.0114612 0.0 
0.745096 0.00926462 0.0 
0.929149 0.0466207 0.0 
1.07454 -0.00164789 0.0 
0.962403 0.0036385 0.0 
1.08634 0.0170263 0.0 
0.59682 0.00658861 0.0 
1.04541 -0.00705086 0.0 
-3.97657e-71 0 0.0 
1.06949 -0.0739376 0.0 
0.959888 -0.0113096 0.0 
1.07492 -0.00550112 0.0 
1.05634 -0.10567 0.0 
1.02769 0.031116 0.0 
1.03385 0.0313257 0.0 
1.1036 -0.0128654 0.0 
1.11029 0.0491224 0.0 
0.553454 -0.0165459 0.0 
1.03559 -0.0219998 0.0 
1.00247 -0.0135842 0.0 
1.13393 0.00511545 0.0 
0.939167 0.0109849 0.0 
1.10478 -0.00561405 0.0 
1.07112 -0.000498572 0.0 
0.97336 -0.0189932 0.0 
1.13303 -0.00476709 0.0 
0.652726 0.0412268 0.0 
0.670982 0.0583498 0.0 
1.08807 0.19025 0.0 
0.958335 0.00192836 0.0 
0.711842 0.00781679 0.0 
0.953689 -0.012306 0.0 
0.750472 -0.0734508 0.0 
0.973573 0.043137 0.0 
1.06619 -0.00141437 0.0 
1.09427 -0.0113235 0.0 
0.828336 0.00772538 0.0 
0.800992 -0.0915077 0.0 
0.443129 -0.0557632 0.0 
0.966375 -0.0793202 0.0 
1.08172 -0.134134 0.0 
-3.97657e-71 0 0.0 
1.06693 0.000146721 0.0 
1.01474 0.038201 0.0 
1.10515 -0.00593729 0.0 
0.818693 -0.0993007 0.0 
0.847614 -0.0029851 0.0 
1.07215 -0.0166546 0.0 
1.13757 -0.0934799 0.0 
1.01253 0.0290316 0.0 
1.08226 -0.00551795 0.0 
-3.97657e-71 0 0.0 
1.00018 0.0038808 0.0 
1.05728 0.0315596 0.0 
0.953469 0.0567926 0.0 
0.998649 0.00558565 0.0 
0.960212 -0.0198482 0.0 
0.76699 0.00818479 0.0 
1.07708 -0.00200318 0.0 
1.0974 0.176331 0.0 
0.675305 0.0244985 0.0 
0.325561 -0.0146251 0.0 
1.0754 0.0029308 0.0 
1.11772 0.011721 0.0 
1.14332 -0.0543885 0.0 
1.02985 -0.0562785 0.0 
0.806964 0.00864932 0.0 
1.09624 -0.0125132 0.0 
0.960984 0.0113457 0.0 
0.98255 -0.126356 0.0 
1.13906 -0.101708 0.0 
0.380945 0.0038115 0.0 
1.0189 0.0112732 0.0 
-3.97657e-71 0 0.0 
1.0698 0.164956 0.0 
0.954119 -0.0479683 0.0 
0.993618 0.0102148 0.0 
1.06629 -0.0447175 0.0 
0.996924 -0.0344114 0.0 
1.13392 -0.00520154 0.0 
1.07012 -0.000312827 0.0 
0.807018 -0.166917 0.0 
0.95876 -0.00877394 0.0 
0.753775 0.00673274 0.0 
0.91862 -0.00916828 0.0 
0.964361 -0.0622137 0.0 
1.09677 -0.0107865 0.0 
1.08228 0.0376093 0.0 
1.06854 0.07933 0.0 
1.07007 0.0411079 0.0 
1.0787 0.00342922 0.0 
0.695933 0.00218823 0.0 
0.972045 -0.0549957 0.0 
0.979493 0.102346 0.0 
0.725969 0.00492948 0.0 
1.11652 0.0167782 0.0 
0.833031 0.0479319 0.0 
1.08905 -0.0874663 0.0 
1.04459 -0.0148522 0.0 
1.10144 -0.064745 0.0 
1.08331 -0.00902381 0.0 
0.456424 0.0278335 0.0 
1.07746 0.0731682 0.0 
1.00008 0.0050707 0.0 
1.09277 0.04653 0.0 
1.02764 0.0500119 0.0 
1.06617 0.0313513 0.0 
1.1017 -0.00834102 0.0 
1.13743 0.00625376 0.0 
1.10975 -0.0532709 0.0 
0.993828 0.00603537 0.0 
1.02715 0.0450471 0.0 
1.06988 -0.000325737 0.0 
1.06635 -0.0185862 0.0 
1.10718 -0.00174005 0.0 
1.05026 0.00651935 0.0 
0.978582 0.0255836 0.0 
0.291135 0.0271685 0.0 
0.976377 -0.0398548 0.0 
1.0122 0.127761 0.0 
0.419272 0.0201608 0.0 
1.09836 -0.0116459 0.0 
1.0295 0.247175 0.0 
0.98524 -0.0293394 0.0 
1.0995 0.0387497 0.0 
0.97507 -0.00854446 0.0 
0.271542 -0.0437212 0.0 
1.08546 -0.00739573 0.0 
0.525633 0.0375003 0.0 
0.397435 0.0605965 0.0 
0.282343 -0.0312816 0.0 
0.958353 -0.0554649 0.0 
0.496217 0.0478352 0.0 
0.758026 0.0147058 0.0 
0.998622 0.0102507 0.0 
1.07843 0.00126157 0.0 
0.105154 -0.0284676 0.0 
1.00249 -0.148828 0.0 
1.09318 -0.0129033 0.0 
1.0359 0.0592172 0.0 
1.01129 -0.108647 0.0 
0.718332 0.00482863 0.0 
0.991787 -0.0516307 0.0 
-3.97657e-71 0 0.0 
1.08825 -0.00338695 0.0 
1.10055 -0.104182 0.0 
0.593139 0.00555627 0.0 
0.490885 0.0627435 0.0 
1.07355 -0.0170271 0.0 
1.07041 0.00223165 0.0 
1.13332 -0.113365 0.0 
0.97605 0.0304873 0.0 
0.583608 0.0360758 0.0 
0.545417 0.00330397 0.0 
1.08878 -0.00693341 0.0 
1.09584 -0.0138408 0.0 
1.06204 -0.215456 0.0 
0.0803463 -0.00872756 0.0 
0.996342 0.00830205 0.0 
1.03087 0.0293491 0.0 
0.956757 0.0284705 0.0 
0.999781 -7.56134e-05 0.0 
1.11209 0.0054446 0.0 
1.10066 0.023122 0.0 
1.07805 0.00248626 0.0 
0.576545 -0.0589614 0.0 
1.09957 0.00752683 0.0 
1.07027 0 0.0 
0.585167 -0.0492115 0.0 
0.988147 -0.00118423 0.0 
0.47011 -0.0305843 0.0 
0.993924 0.0319637 0.0 
1.05891 0 0.0 
1.06969 -0.000140143 0.0 
1.09179 0.0132727 0.0 
0.851348 0.271883 0.0 
1.06607 0.00275257 0.0 
0.965071 0.0931894 0.0 
1.10578 -0.150834 0.0 
1.11782 0.0318452 0.0 
1.01447 0.024339 0.0 
1.00641 0.04327 0.0 
1.10671 0.0390467 0.0 
1.05554 -0.00178534 0.0 
0.311973 -0.0167483 0.0 
1.12129 0.0069574 0.0 
-3.97657e-71 0 0.0 
1.15299 -0.0475265 0.0 
0.85749 0.0268588 0.0 
1.07117 0.00234297 0.0 
0.511345 0.0218608 0.0 
1.06105 -0.0473497 0.0 
0.973226 0.0130577 0.0 
0.999909 -0.000272546 0.0 
0.926709 0.0127178 0.0 
1.10429 -0.0069968 0.0 
1.02487 0.0298191 0.0 
1.13327 0.00898257 0.0 
1.08909 0.0477079 0.0 
1.02947 0.00392666 0.0 
1.05271 0.0653027 0.0 
0.837456 0.00766013 0.0 
0.00405763 0.00214762 0.0 
1.08473 -0.0071916 0.0 
0.495334 -0.058596 0.0 
0.742274 0.00228541 0.0 
1 0 0.0 
0.645549 -0.013109 0.0 
1.16154 -0.059119 0.0 
1.10005 -0.0157802 0.0 
1.0869 -0.00690573 0.0 