<VTKFile type="UnstructuredGrid" version="0.1" byte_order="LittleEndian">
  <UnstructuredGrid>
    <Piece NumberOfPoints="17003" NumberOfCells="33813">
      <Points>
        <DataArray type = "Float64" NumberOfComponents="3" format="ascii">
0 0 0.0 
12 0 0.0 
12 4 0.0 
0 4 0.0 
3.31406 2.34582 0.0 
6.63049 0 0.0 
1.20574 0 0.0 
0 2.03118 0.0 
7.24453 2.38771 0.0 
3.67348 2.77181 0.0 
0 1.70279 0.0 
5.70474 3.0028 0.0 
11.3234 0 0.0 
3.65852 0 0.0 
3.63281 1.71 0.0 
2.34429 2.31645 0.0 
3.14822 0 0.0 
2.55098 0 0.0 
2.71479 2.29875 0.0 
12 2.91971 0.0 
5.36637 0 0.0 
11.586 4 0.0 
5.56762 2.5236 0.0 
5.1594 0 0.0 
9.53375 4 0.0 
12 3.17166 0.0 
3.83762 0 0.0 
6.06535 0 0.0 
4.10903 0 0.0 
0.686314 4 0.0 
4.83493 0 0.0 
5.57611 0 0.0 
2.73964 1.94301 0.0 
5.69255 2.48312 0.0 
5.88083 0 0.0 
3.41664 2.49495 0.0 
6.65285 0.0924063 0.0 
4.13308 3.16746 0.0 
9.40516 0 0.0 
11.3776 4 0.0 
9.22343 4 0.0 
8.14472 0 0.0 
3.20394 1.65158 0.0 
9.57869 0 0.0 
11.6531 0 0.0 
2.44342 2.44856 0.0 
3.50622 2.90992 0.0 
9.11 0 0.0 
3.1512 1.73001 0.0 
2.10308 1.51688 0.0 
2.68705 3.1842 0.0 
10.9845 4 0.0 
3.70393 1.43277 0.0 
10.7695 4 0.0 
10.4533 4 0.0 
7.96012 4 0.0 
3.07861 1.01665 0.0 
0.327913 4 0.0 
0.86775 4 0.0 
2.96628 1.82074 0.0 
12 3.55991 0.0 
5.30805 3.08669 0.0 
2.86325 3.07136 0.0 
3.84524 2.0751 0.0 
2.24141 0.93355 0.0 
5.15967 0.706857 0.0 
1.48145 4 0.0 
10.1923 4 0.0 
3.8579 2.4197 0.0 
7.76169 4 0.0 
8.14832 4 0.0 
2.47008 1.57778 0.0 
3.72506 2.6317 0.0 
1.7589 3.11795 0.0 
3.446 2.4356 0.0 
3.23515 4 0.0 
8.9402 4 0.0 
3.63538 2.73664 0.0 
8.4675 4 0.0 
5.37906 4 0.0 
4.19764 2.84393 0.0 
3.85074 1.48815 0.0 
5.9075 4 0.0 
6.96894 4 0.0 
7.16917 4 0.0 
6.65817 4 0.0 
6.4671 4 0.0 
5.18332 4 0.0 
6.19 4 0.0 
2.99921 1.80528 0.0 
4.27277 2.42795 0.0 
4.9753 4 0.0 
4.69058 4 0.0 
3.42751 2.46418 0.0 
3.32455 1.09341 0.0 
4.19 4 0.0 
4.44 4 0.0 
3.71691 4 0.0 
4.49045 1.41753 0.0 
3.41917 4 0.0 
3.25049 1.96086 0.0 
6.08555 0.864379 0.0 
2.88495 3.59818 0.0 
5.13828 1.03615 0.0 
1.65189 4 0.0 
3.5251 2.37338 0.0 
4.29277 1.68152 0.0 
3.4699 2.88409 0.0 
3.61125 2.98709 0.0 
3.23709 3.11447 0.0 
3.06206 0.904979 0.0 
3.30321 1.60633 0.0 
3.28525 0.859852 0.0 
6.34812 0.126926 0.0 
4.12142 1.0498 0.0 
3.88453 2.79033 0.0 
4.15655 1.57511 0.0 
3.4934 1.5864 0.0 
6.75831 3.5524 0.0 
4.45767 3.28104 0.0 
3.84371 1.42495 0.0 
2.45466 1.98095 0.0 
3.4924 1.49351 0.0 
3.98302 1.70511 0.0 
4.04028 2.89686 0.0 
3.79653 1.66326 0.0 
5.26583 1.61141 0.0 
1.90318 1.12354 0.0 
2.976 1.70283 0.0 
5.43986 3.13531 0.0 
2.4365 1.74673 0.0 
6.26186 0.795451 0.0 
6.21939 0 0.0 
5.70638 2.08713 0.0 
3.73989 1.58006 0.0 
2.58289 1.48101 0.0 
2.90675 1.51172 0.0 
2.41422 1.10454 0.0 
2.8483 1.49443 0.0 
4.71996 2.6528 0.0 
2.42609 1.71609 0.0 
4.00919 1.13421 0.0 
2.88532 3.73912 0.0 
4.41132 1.1173 0.0 
2.23931 1.01274 0.0 
4.92691 1.54806 0.0 
4.98612 2.95989 0.0 
3.74336 1.72195 0.0 
2.33306 3.00585 0.0 
3.77219 1.59036 0.0 
2.63174 3.12241 0.0 
3.29868 3.2289 0.0 
4.25269 2.28959 0.0 
3.13827 2.64378 0.0 
6.05034 2.56636 0.0 
5.05095 0.727725 0.0 
4.83421 0.860127 0.0 
2.26977 3.13237 0.0 
5.03283 3.13985 0.0 
0.264841 3.48641 0.0 
5.22777 2.65238 0.0 
3.46399 2.72354 0.0 
1.74002 1.8728 0.0 
4.62672 1.61969 0.0 
3.42861 1.0951 0.0 
5.54279 1.43606 0.0 
6.17193 0.7625 0.0 
7.41009 2.4744 0.0 
4.66302 1.46904 0.0 
1.79254 2.33178 0.0 
3.23793 1.58689 0.0 
3.28652 2.57496 0.0 
3.96259 1.1582 0.0 
4.48805 3.07548 0.0 
4.12065 1.60016 0.0 
3.25603 3.53864 0.0 
2.91281 1.05409 0.0 
6.51627 0.784134 0.0 
5.25053 1.00353 0.0 
2.83825 1.72261 0.0 
2.36576 2.33886 0.0 
4.2261 2.91259 0.0 
4.81502 1.60989 0.0 
3.07749 1.04387 0.0 
4.61332 1.12879 0.0 
4.50358 2.00899 0.0 
5.08579 1.5412 0.0 
5.45211 2.54094 0.0 
2.73981 1.57273 0.0 
3.83693 1.77691 0.0 
5.07574 2.88428 0.0 
3.67059 1.48802 0.0 
6.87014 3.1459 0.0 
3.35778 3.23125 0.0 
4.28938 0 0.0 
3.92976 1.77894 0.0 
3.01197 3.10432 0.0 
3.58964 1.91608 0.0 
5.72933 0 0.0 
4.76024 2.72868 0.0 
4.62976 2.65185 0.0 
6.95409 1.87707 0.0 
2.24087 2.35006 0.0 
2.23297 1.69801 0.0 
3.35328 2.07195 0.0 
3.37678 3.03063 0.0 
3.14065 2.1474 0.0 
5.91611 1.60985 0.0 
1.86557 1.15397 0.0 
3.88422 1.01837 0.0 
1.84243 2.58106 0.0 
8.84816 0.137396 0.0 
2.82473 0.928821 0.0 
5.27013 1.07311 0.0 
4.61911 3.58611 0.0 
1.72279 1.6506 0.0 
4.19511 1.6774 0.0 
1.86537 3.1847 0.0 
3.54231 1.61002 0.0 
5.53925 0.0892704 0.0 
3.83664 1.55534 0.0 
8.1218 0.847497 0.0 
1.98826 1.78815 0.0 
3.10637 1.97154 0.0 
6.02906 2.43616 0.0 
4.76892 3.09286 0.0 
12 2.70513 0.0 
11.0062 3.29442 0.0 
3.70985 2.84763 0.0 
0.279396 3.65515 0.0 
3.36717 1.44427 0.0 
3.13279 2.13472 0.0 
3.97489 1.51563 0.0 
2.62085 1.34774 0.0 
3.42852 2.89625 0.0 
2.46059 2.20856 0.0 
2.82946 1.5512 0.0 
2.89865 1.97698 0.0 
2.98414 2.02543 0.0 
3.31177 1.53178 0.0 
2.42347 3.11907 0.0 
4.56206 1.10441 0.0 
3.28433 1.0901 0.0 
4.83829 2.8654 0.0 
4.98774 1.56166 0.0 
8.06222 1.19049 0.0 
4.70828 2.60517 0.0 
2.53474 1.70239 0.0 
2.74591 2.64556 0.0 
3.22641 2.89426 0.0 
4.98126 0 0.0 
4.84191 0.395439 0.0 
4.49474 1.50718 0.0 
4.55433 1.58904 0.0 
8.48732 0.489253 0.0 
3.00862 1.87244 0.0 
4.48522 0.137869 0.0 
4.93697 0.726415 0.0 
1.81432 1.99126 0.0 
2.36294 2.89804 0.0 
9.25253 0.295556 0.0 
8.79952 1.46852 0.0 
3.1875 1.48006 0.0 
6.43286 0.741127 0.0 
2.48577 1.77406 0.0 
2.93756 2.23566 0.0 
1.68192 1.53042 0.0 
2.47065 2.57845 0.0 
3.09139 2.61908 0.0 
7.96701 0.66414 0.0 
3.80154 2.51885 0.0 
7.53265 0.369247 0.0 
1.42506 2.28846 0.0 
2.43403 1.15514 0.0 
4.22322 1.78007 0.0 
2.19301 1.96859 0.0 
5.9518 0.790961 0.0 
4.71437 0.34688 0.0 
3.09315 1.78758 0.0 
2.90977 1.90203 0.0 
3.71135 2.7551 0.0 
4.3335 1.50533 0.0 
7.30686 3.67474 0.0 
2.33575 1.11622 0.0 
3.03719 1.9749 0.0 
0.788891 0.259875 0.0 
1.668 1.78185 0.0 
1.86181 2.07466 0.0 
5.52122 1.55502 0.0 
4.26937 1.26606 0.0 
3.10001 1.95041 0.0 
1.53323 0.279024 0.0 
6.75511 3.69678 0.0 
2.70379 2.99025 0.0 
4.75604 3.59972 0.0 
7.41431 2.59854 0.0 
2.12348 3.66575 0.0 
2.73152 1.04876 0.0 
5.17176 2.67966 0.0 
5.61235 2.65942 0.0 
2.91648 0.868378 0.0 
6.34165 0.730279 0.0 
2.93526 1.59995 0.0 
5.16314 1.09618 0.0 
2.76746 1.52902 0.0 
8.29532 0.322978 0.0 
4.56933 1.77241 0.0 
1.67945 1.83685 0.0 
2.8045 2.28549 0.0 
6.72239 0.740716 0.0 
2.19123 3.13121 0.0 
5.38992 3.19587 0.0 
3.71577 1.71994 0.0 
1.39082 0.231455 0.0 
6.61057 0.755749 0.0 
6.05864 0.761275 0.0 
7.9109 0.226585 0.0 
2.70484 0.302168 0.0 
3.38662 1.69127 0.0 
3.81221 0.24023 0.0 
2.81279 0.235683 0.0 
2.46678 2.93467 0.0 
3.69278 3.02525 0.0 
3.44818 3.17461 0.0 
2.69162 1.03456 0.0 
7.59734 0.264606 0.0 
2.79262 2.2797 0.0 
7.04069 2.82425 0.0 
6.10243 2.16054 0.0 
0.648779 0.326291 0.0 
6.7356 0.841442 0.0 
10.6421 0.309707 0.0 
3.7021 1.5365 0.0 
2.68441 1.94355 0.0 
3.54656 0.304044 0.0 
8.89903 0.432556 0.0 
2.74104 3.09879 0.0 
3.8786 0.658264 0.0 
3.67993 0.29948 0.0 
3.9229 0.301618 0.0 
3.36769 2.47013 0.0 
1.10611 0.360274 0.0 
0.392089 1.25988 0.0 
2.91195 0.295792 0.0 
4.07717 0.841594 0.0 
0.592035 1.29352 0.0 
8.73609 0.462419 0.0 
0.91605 0.267189 0.0 
3.38464 2.11599 0.0 
4.96634 1.44568 0.0 
3.40756 2.0198 0.0 
9.83544 0.406676 0.0 
5.85831 0.75539 0.0 
3.13868 1.47484 0.0 
3.39041 0.259745 0.0 
11.7949 3.27333 0.0 
8.84921 0.550813 0.0 
3.04308 0.329578 0.0 
9.69144 0.453986 0.0 
3.40564 1.7889 0.0 
2.50379 0.340076 0.0 
7.46041 0.214219 0.0 
7.48474 3.44883 0.0 
11.6879 3.08491 0.0 
0.889748 3.77849 0.0 
4.61094 1.68453 0.0 
3.97884 0 0.0 
2.60083 0.261896 0.0 
5.1094 2.83387 0.0 
4.24953 0.249309 0.0 
2.39059 0.244025 0.0 
6.90553 3.67768 0.0 
3.21102 0.283024 0.0 
4.98663 2.03053 0.0 
1.74862 0.252482 0.0 
1.87864 0.279816 0.0 
3.8815 1.61608 0.0 
2.94907 0.140112 0.0 
1.16169 3.83335 0.0 
11.16 0.43176 0.0 
5.7392 1.54182 0.0 
4.28924 1.49827 0.0 
10.0094 0.430538 0.0 
0.261487 2.62943 0.0 
3.94883 0.142224 0.0 
7.0657 0.711615 0.0 
3.11785 3.03778 0.0 
7.44289 4 0.0 
4.04678 0.169962 0.0 
10.3407 0.447423 0.0 
4.39489 0.226565 0.0 
3.27771 2.83077 0.0 
2.56535 3.01775 0.0 
4.23817 0.825156 0.0 
2.01608 0.349671 0.0 
9.38355 0.347739 0.0 
8.33331 0.475075 0.0 
11.6514 0.196156 0.0 
3.05749 0.170675 0.0 
2.72242 2.93104 0.0 
4.04232 0.347411 0.0 
0.345859 1.65545 0.0 
0.254655 3.07263 0.0 
4.14358 3.01934 0.0 
1.26412 0.344721 0.0 
2.42523 3.62492 0.0 
2.97383 3.25309 0.0 
4.81141 0.759599 0.0 
1.63652 0.328383 0.0 
3.07852 2.54231 0.0 
2.54977 3.62738 0.0 
3.5103 1.93235 0.0 
10.7931 0.252749 0.0 
3.7915 1.11184 0.0 
3.55217 3.15805 0.0 
7.09379 3.73179 0.0 
11.5549 2.66118 0.0 
11.7998 2.90097 0.0 
1.74033 3.78431 0.0 
10.1945 0.432411 0.0 
0.77851 3.71435 0.0 
7.98824 1.3688 0.0 
11.6807 1.65299 0.0 
0.663521 3.71478 0.0 
11.712 2.20934 0.0 
5.36228 2.54884 0.0 
7.00276 0.58601 0.0 
3.81249 3.64695 0.0 
11.6929 1.16857 0.0 
11.6509 1.86154 0.0 
7.78222 3.74707 0.0 
0.493509 1.11148 0.0 
3.49114 3.58122 0.0 
2.66231 3.57235 0.0 
2.77858 1.80777 0.0 
11.8092 1.86218 0.0 
4.28951 1.72378 0.0 
11.791 3.51504 0.0 
3.83382 0.104698 0.0 
0.0933318 1.56523 0.0 
3.14692 3.26293 0.0 
0.307984 0.903698 0.0 
0.137416 1.42501 0.0 
12 3.37387 0.0 
6.02093 3.7465 0.0 
0.276841 2.32856 0.0 
1.74983 3.17925 0.0 
4.68435 3.00125 0.0 
11.3914 1.82536 0.0 
2.83225 0.106025 0.0 
0.568412 3.83855 0.0 
3.1275 3.57683 0.0 
1.29226 3.91026 0.0 
2.28168 3.08743 0.0 
1.06029 3.71859 0.0 
2.77335 3.64322 0.0 
4.07389 1.73794 0.0 
4.67886 3.70667 0.0 
0.625171 3.5678 0.0 
4.26482 3.63502 0.0 
2.27672 3.63916 0.0 
6.44036 3.74863 0.0 
4.36829 3.26239 0.0 
2.00051 2.0905 0.0 
6.17065 3.67657 0.0 
3.80086 3.00169 0.0 
5.0636 1.71513 0.0 
3.87639 2.2886 0.0 
2.98922 3.61295 0.0 
0.543289 3.68688 0.0 
4.98393 2.89772 0.0 
7.36021 2.67505 0.0 
3.98216 3.12726 0.0 
1.90078 3.75655 0.0 
5.51887 3.56302 0.0 
5.891 3.8418 0.0 
4.96631 3.62176 0.0 
6.63875 3.63982 0.0 
5.07822 3.5357 0.0 
2.20126 2.40635 0.0 
2.74827 1.49555 0.0 
6.0208 1.4863 0.0 
2.99635 0 0.0 
5.89351 3.55377 0.0 
6.1928 3.83405 0.0 
[...]
<PointData>
  <DataArray type = "Float64" Name="Vitesse" NumberOfComponents="3" format="ascii">
1 0 0.0 
1.06679 0 0.0 
1.06755 0 0.0 
1 0 0.0 
1.06844 0.0325763 0.0 
1.07709 0 0.0 
1.00831 0 0.0 
1 0 0.0 
0.891319 -0.0106097 0.0 
1.12973 0.00894461 0.0 
1 0 0.0 
1.08481 -0.00792537 0.0 
1.06734 0 0.0 
1.08986 0 0.0 
0.877414 0.0474093 0.0 
0.946977 0.13408 0.0 
1.07706 0 0.0 
1.05226 0 0.0 
1.09237 0.186663 0.0 
1.04401 -0.00337399 0.0 
1.08581 0 0.0 
1.06792 0 0.0 
1.01217 -0.0169394 0.0 
1.08764 0 0.0 
1.07001 0 0.0 
1.06404 -0.00138162 0.0 
1.09216 0 0.0 
1.08039 0 0.0 
1.09363 0 0.0 
1.00224 0 0.0 
1.09041 0 0.0 
1.08405 0 0.0 
-4.26243e-58 0 0.0 
0.983729 -0.0171389 0.0 
1.08169 0 0.0 
1.15329 0.0285449 0.0 
1.07701 0.000460159 0.0 
1.10442 -0.00222682 0.0 
1.06943 0 0.0 
1.0681 0 0.0 
1.07046 0 0.0 
1.07176 0 0.0 
1.10811 -0.065736 0.0 
1.06919 0 0.0 
1.06709 0 0.0 
1.00572 0.133716 0.0 
1.12025 0.021598 0.0 
1.06986 0 0.0 
0.966715 -0.0655761 0.0 
0.978665 -0.0671494 0.0 
1.06241 0.0432991 0.0 
1.06843 0 0.0 
1.1386 0.00439226 0.0 
1.06862 0 0.0 
1.06892 0 0.0 
1.07292 0 0.0 
1.09954 -0.0467137 0.0 
1.0005 0 0.0 
1.00381 0 0.0 
0.678743 -0.0697684 0.0 
1.06816 -0.000342743 0.0 
1.08877 -0.00852735 0.0 
1.07812 0.0491234 0.0 
0.24704 -0.0294853 0.0 
1.03063 -0.0454264 0.0 
1.08957 0.0068283 0.0 
1.01315 0 0.0 
1.0692 0 0.0 
1.04739 -0.0317724 0.0 
1.07345 0 0.0 
1.07247 0 0.0 
1.01147 -0.14381 0.0 
1.136 -9.25465e-05 0.0 
1.01076 0.0255024 0.0 
1.13268 0.0168465 0.0 
1.07931 0 0.0 
1.07091 0 0.0 
1.13326 0.0109791 0.0 
1.07178 0 0.0 
1.08613 0 0.0 
1.11084 -0.0100919 0.0 
1.11416 0.0198168 0.0 
1.08203 0 0.0 
1.07616 0 0.0 
1.07536 0 0.0 
1.07756 0 0.0 
1.07855 0 0.0 
1.08779 0 0.0 
1.08017 0 0.0 
0.739189 -0.0733143 0.0 
1.00503 -0.0349174 0.0 
1.08952 0 0.0 
1.09168 0 0.0 
1.14662 0.0240965 0.0 
1.11791 -0.0342806 0.0 
1.09365 0 0.0 
1.09304 0 0.0 
1.09036 0 0.0 
1.08375 0.0233921 0.0 
1.08455 0 0.0 
-4.26243e-58 0 0.0 
1.08177 0.00578013 0.0 
1.0684 0.0175625 0.0 
1.09066 0.0108923 0.0 
1.01751 0 0.0 
1.05822 -0.0101984 0.0 
0.861024 0.0441013 0.0 
1.12183 0.0245154 0.0 
1.11571 0.014645 0.0 
1.0993 0.0317342 0.0 
1.09233 -0.0403862 0.0 
1.13609 -0.0433206 0.0 
1.101 -0.0281249 0.0 
1.07871 0.000743754 0.0 
1.11068 0.00649311 0.0 
1.12253 -0.00254835 0.0 
1.02199 0.0363667 0.0 
1.11893 -0.00263593 0.0 
1.07766 -0.00207027 0.0 
1.0983 -0.00499164 0.0 
1.12723 0.0132662 0.0 
0.427917 -0.151634 0.0 
1.15265 -0.015255 0.0 
0.834237 0.0517152 0.0 
1.11389 -0.00498623 0.0 
0.948901 0.045453 0.0 
0.921754 0.0241974 0.0 
1.00685 -0.038749 0.0 
1.07306 -0.119505 0.0 
1.08733 -0.00763187 0.0 
0.948645 -0.193575 0.0 
1.08055 0.00484465 0.0 
1.07941 0 0.0 
0.610173 -0.00807323 0.0 
1.07695 0.0265411 0.0 
1.04984 -0.128982 0.0 
1.12374 -0.118257 0.0 
1.03882 -0.0648446 0.0 
1.11079 -0.121527 0.0 
1.08588 -0.018808 0.0 
0.959263 -0.176456 0.0 
1.1163 0.00579446 0.0 
1.06704 0.0111383 0.0 
1.10465 0.0123664 0.0 
1.028 -0.0504747 0.0 
0.993932 0.0264041 0.0 
1.09294 -0.0110379 0.0 
0.822267 0.054759 0.0 
1.03385 0.0524211 0.0 
1.06043 0.0306677 0.0 
1.05877 0.0481549 0.0 
1.09623 0.0245893 0.0 
0.790525 -0.0450101 0.0 
1.13275 0.0680134 0.0 
1.0209 -0.0127827 0.0 
1.0909 0.00717227 0.0 
1.09442 0.00890866 0.0 
1.03284 0.0419196 0.0 
1.09185 -0.00849265 0.0 
1.00023 0.00113283 0.0 
1.0703 -0.0156416 0.0 
1.13645 0.0264105 0.0 
0.965153 -0.0118614 0.0 
0.935294 0.0339403 0.0 
1.12085 -0.0264725 0.0 
1.03768 0.0161618 0.0 
1.08103 0.00487685 0.0 
0.945631 -0.00933574 0.0 
1.05668 0.0248277 0.0 
0.970583 0.0263425 0.0 
1.15177 -0.0620762 0.0 
1.15116 0.0515877 0.0 
1.11858 0.00499667 0.0 
1.10054 -0.00827428 0.0 
0.998569 0.0390993 0.0 
1.08492 0.0149749 0.0 
1.08859 -0.0578142 0.0 
1.07913 0.00416865 0.0 
1.08926 0.0100535 0.0 
1.07578 -0.151161 0.0 
0.95912 0.138516 0.0 
1.1087 -0.00870016 0.0 
0.938444 0.0304166 0.0 
1.1011 -0.0486301 0.0 
1.09981 0.0134947 0.0 
0.397718 -0.00118984 0.0 
0.991689 0.0239046 0.0 
1.02485 -0.0174858 0.0 
1.09322 -0.149613 0.0 
0.654227 0.0590632 0.0 
1.09119 -0.0118948 0.0 
1.13486 0.00691611 0.0 
1.07796 -0.003666 0.0 
1.0981 0.0222785 0.0 
1.09361 0 0.0 
0.64836 0.0564301 0.0 
1.08754 0.0419928 0.0 
0.176577 0.0451522 0.0 
1.08285 0 0.0 
1.09281 -0.0162418 0.0 
1.08927 -0.0192231 0.0 
0.712175 0.0069398 0.0 
0.95105 0.0960685 0.0 
0.941311 -0.09594 0.0 
-4.26243e-58 0 0.0 
1.1093 0.0274434 0.0 
0.374777 0.0299795 0.0 
0.911343 0.0178513 0.0 
1.00434 -0.0374777 0.0 
1.11459 -0.00116035 0.0 
0.986698 0.0377189 0.0 
1.07042 0.000242035 0.0 
1.07645 -0.049985 0.0 
1.0888 0.0108473 0.0 
1.09374 -0.00287825 0.0 
0.976025 -0.0249154 0.0 
0.873901 0.0456274 0.0 
1.01552 0.026928 0.0 
1.08757 0.0105946 0.0 
1.08445 0.000742386 0.0 
1.08125 0.0280021 0.0 
1.07311 0.00208484 0.0 
0.945716 -0.0363466 0.0 
-4.26243e-58 0 0.0 
0.94002 -0.0159529 0.0 
1.09576 -0.00913348 0.0 
0.999513 -0.00592316 0.0 
1.06811 -0.000729863 0.0 
1.12384 0.00805744 0.0 
1.0003 0.000831512 0.0 
1.15739 -0.0379337 0.0 
0.298168 0.0272944 0.0 
1.08854 0.0275154 0.0 
1.05997 -0.102673 0.0 
1.12016 0.0273709 0.0 
0.921285 0.238907 0.0 
1.11262 -0.135263 0.0 
-4.26243e-58 0 0.0 
-4.26243e-58 0 0.0 
1.16048 -0.0468362 0.0 
1.04288 0.0464646 0.0 
1.10092 0.0128241 0.0 
1.11612 -0.0372056 0.0 
1.09503 -0.0129639 0.0 
0.979704 0.0260286 0.0 
1.05548 0.00414406 0.0 
1.07702 -0.0207079 0.0 
1.01532 -0.203719 0.0 
1.08042 0.102252 0.0 
1.11318 0.0427827 0.0 
1.08918 0 0.0 
1.09158 0.00344203 0.0 
1.0467 0.0286223 0.0 
0.975442 0.0333658 0.0 
1.07186 0.000987412 0.0 
0.349362 -0.0357468 0.0 
1.09317 0.000710361 0.0 
1.09226 0.00717436 0.0 
0.956068 -0.00236753 0.0 
1.03267 0.0623384 0.0 
1.07001 0.00044689 0.0 
0.966361 0.0064509 0.0 
1.15596 -0.0705392 0.0 
1.07947 0.0041231 0.0 
0.962428 -0.23517 0.0 
0.909814 0.095334 0.0 
0.983751 -0.0266905 0.0 
1.02748 0.109476 0.0 
1.13143 0.0761406 0.0 
1.07356 0.00168747 0.0 
1.11815 -0.0149459 0.0 
1.07392 0.00116878 0.0 
0.984855 0.0100256 0.0 
1.03919 -0.0706177 0.0 
0.656575 0.0464121 0.0 
0.872482 -0.0184911 0.0 
1.08257 0.00567274 0.0 
1.09253 0.00274481 0.0 
0.778141 -0.0623347 0.0 
0.213196 -0.0202426 0.0 
1.12994 0.00590207 0.0 
1.05957 0.0296317 0.0 
1.07522 -0.0011347 0.0 
1.03132 -0.0625879 0.0 
-4.26243e-58 0 0.0 
1.00298 -0.00222399 0.0 
0.973211 -0.0155604 0.0 
0.951489 0.00754154 0.0 
0.966647 0.0198718 0.0 
1.1095 0.0157079 0.0 
-4.26243e-58 0 0.0 
1.0141 -0.00673443 0.0 
1.07739 -0.00140684 0.0 
1.06634 0.0591808 0.0 
1.09248 -0.00313523 0.0 
1.0082 -0.00777407 0.0 
1.03214 0.0133293 0.0 
1.07113 -0.0625572 0.0 
1.07674 -0.0152874 0.0 
1.06286 -0.01317 0.0 
1.08131 -0.0431105 0.0 
1.07995 0.00427041 0.0 
1.13481 -0.128916 0.0 
1.09007 0.0116128 0.0 
1.09655 -0.136397 0.0 
1.07181 0.000712608 0.0 
0.689763 0.0370304 0.0 
0.970678 -0.0125301 0.0 
1.0842 0.157798 0.0 
1.07802 0.0035281 0.0 
1.02821 0.0396474 0.0 
1.08769 -0.00717278 0.0 
0.832907 0.0537821 0.0 
1.01122 -0.00473742 0.0 
1.07859 0.00382159 0.0 
1.08177 0.00516725 0.0 
1.07255 0.000597738 0.0 
1.05984 -0.0137213 0.0 
0.997549 -0.00117682 0.0 
1.09344 -0.00236963 0.0 
1.06445 -0.0102395 0.0 
1.04331 0.0626424 0.0 
1.11361 0.010478 0.0 
1.10318 0.0200963 0.0 
1.06691 -0.0616736 0.0 
1.07351 0.000811444 0.0 
1.08064 0.160621 0.0 
1.06664 -0.00525888 0.0 
0.68814 -0.0112614 0.0 
1.00185 -0.00214284 0.0 
1.07814 0.00397288 0.0 
1.06837 0.000298438 0.0 
1.11347 0.0162177 0.0 
-4.26243e-58 0 0.0 
1.09039 -0.00608286 0.0 
1.07093 0.000744064 0.0 
1.06774 0.0493219 0.0 
1.10179 -0.00381712 0.0 
1.09259 -0.00445187 0.0 
1.09493 -0.00188172 0.0 
1.15277 0.0362235 0.0 
1.00606 -0.004984 0.0 
0.999747 -0.00253537 0.0 
1.06945 -0.0124375 0.0 
1.10569 0.00178754 0.0 
0.999372 -0.00412311 0.0 
1.07131 0.000845172 0.0 
1.00413 -0.00287357 0.0 
0.18247 -0.0367722 0.0 
1.05263 0.0210955 0.0 
-4.26243e-58 0 0.0 
1.06948 0.000500114 0.0 
1.08319 0.00567347 0.0 
1.15131 -0.0786229 0.0 
1.08615 -0.00678234 0.0 
1.06688 -0.00084639 0.0 
1.07135 0.000971926 0.0 
1.07534 -0.0127904 0.0 
1.06979 0.000594277 0.0 
0.668972 0.0362655 0.0 
1.05025 -0.0156887 0.0 
1.07385 0.000704389 0.0 
1.07519 -0.00174159 0.0 
1.06015 -0.00128368 0.0 
1.00376 0.00214657 0.0 
0.844019 0.0367394 0.0 
1.09321 0 0.0 
1.05471 -0.0119463 0.0 
1.08983 -0.0125495 0.0 
1.0948 0.000477179 0.0 
1.04487 -0.010906 0.0 
1.07675 -0.00138493 0.0 
1.08097 -0.00930212 0.0 
0.496542 -0.00418204 0.0 
1.02004 -0.00753598 0.0 
1.02405 -0.00936173 0.0 
1.01088 0.0394172 0.0 
1.0698 -0.00571435 0.0 
1.00712 0.00245148 0.0 
1.06814 0.000377975 0.0 
0.97032 0.0174376 0.0 
1.06634 0.0291079 0.0 
1.06932 0.000501996 0.0 
0.999829 0.00136315 0.0 
1.09356 -0.000864906 0.0 
1.0765 0.00282022 0.0 
1.0974 0.0414984 0.0 
1.07443 0 0.0 
1.09416 -0.000538243 0.0 
1.06897 0.000472627 0.0 
1.09413 0.000970939 0.0 
1.12111 0.0416739 0.0 
1.05341 0.0566761 0.0 
1.1031 0.00443954 0.0 
1.02854 -0.0130999 0.0 
1.06994 0.000501352 0.0 
1.07213 0.00103048 0.0 
1.0673 0.000157948 0.0 
1.07433 -0.00652859 0.0 
1.06917 0.0647854 0.0 
1.09585 -0.000975504 0.0 
0.999491 -0.00137501 0.0 
1.00004 0.00153038 0.0 
1.10802 -0.00476537 0.0 
1.00842 -0.0058926 0.0 
1.04563 0.0171582 0.0 
1.0799 0.0340528 0.0 
1.09409 0.00749429 0.0 
1.01641 -0.00877445 0.0 
1.13997 0.0861332 0.0 
1.05175 0.0173396 0.0 
0.101057 0.0360024 0.0 
1.06811 0.000235052 0.0 
1.12083 -0.00340155 0.0 
1.10595 0.0159516 0.0 
1.07589 -0.00104477 0.0 
0.989325 -0.00370868 0.0 
1.04123 -0.00200706 0.0 
1.01937 0.00625652 0.0 
1.0691 0.000476117 0.0 
1.00269 0.00230239 0.0 
1.01566 0.00588425 0.0 
0.88596 0.00418169 0.0 
1.0019 0.00187643 0.0 
0.843612 -0.00323038 0.0 
1.03202 -0.0177185 0.0 
1.07639 0.00241688 0.0 
1.09437 0.00370418 0.0 
1.03013 0.00230111 0.0 
0.829632 0.0023413 0.0 
1.07363 -0.000696791 0.0 
0.99989 -0.0034756 0.0 
1.09064 0.00951567 0.0 
1.05757 0.0199922 0.0 
0.896674 -0.123349 0.0 
0.831079 0.00201885 0.0 
0.779647 0.0453563 0.0 
1.06832 -0.000441373 0.0 
1.09255 -0.000999944 0.0 
0.999975 -0.000418967 0.0 
1.0886 0.0285655 0.0 
1.0001 -0.00199034 0.0 
0.999957 -0.000748585 0.0 
1.06755 -0.000647616 0.0 
1.08145 -0.00170838 0.0 
0.999659 0.00083068 0.0 
1.01204 0.0236309 0.0 
1.09777 -0.0104875 0.0 
0.834668 0.00278687 0.0 
1.06476 -0.00455743 0.0 
1.00145 0.000890387 0.0 
1.07933 0.0156991 0.0 
1.00929 0.00161213 0.0 
1.0325 0.0450928 0.0 
1.00547 0.00354066 0.0 
1.06265 0.016102 0.0 
0.753271 0.0517934 0.0 
1.09256 -0.00209091 0.0 
1.00151 0.00254198 0.0 
1.09557 -0.000724873 0.0 
1.03865 0.0156494 0.0 
1.0789 -0.00137487 0.0 
1.09962 -0.00442168 0.0 
0.931597 0.0151945 0.0 
1.08058 -0.0020281 0.0 
1.11413 0.00551502 0.0 
0.796382 0.0282302 0.0 
0.81159 -0.0523057 0.0 
1.07297 0.0158991 0.0 
1.00123 0.00160254 0.0 
1.09277 -0.0120127 0.0 
1.0351 -0.00654882 0.0 
1.1073 0.000721835 0.0 
1.02429 0.00821435 0.0 
1.0856 -0.00359958 0.0 
1.08224 -0.00112566 0.0 
1.09046 -0.00324364 0.0 
1.07805 -0.00177867 0.0 
1.08972 -0.00411741 0.0 
0.964198 0.0847823 0.0 
1.08963 -0.130016 0.0 
0.999424 0.0145418 0.0 
1.07135 0 0.0 
1.08267 -0.00318929 0.0 
1.08023 -0.00102466 0.0 
1.10419 -0.00493815 0.0 
1.0763 -0.000757358 0.0 
1.0902 0.0132677 0.0 
1.09305 0.0101756 0.0 
0.813609 -0.076797 0.0 
1.08141 -0.00254493 0.0 
1.07818 -0.00274105 0.0 
1.08729 -0.0142939 0.0 
0.995857 0.0193268 0.0 
0.887265 0.0201848 0.0 
1.06935 -0.000262829 0.0 
1.05934 -0.0157687 0.0 
1.0848 -0.00201235 0.0 
1.10252 0.00934949 0.0 
1.09114 -0.00220361 0.0 
1.08079 0.00896756 0.0 
0.82016 0.00111236 0.0 
0.921973 0.0323122 0.0 
0.935894 0.025049 0.0 
1.10097 -0.00270245 0.0 
0.507587 -0.0576773 0.0 
1.11617 0.0185552 0.0 
1.07326 -0.000329139 0.0 
1.11553 0.0260239 0.0 
0.992304 -0.0994491 0.0 
1.09042 0.00788013 0.0 
1.11199 0.00785649 0.0 
1.07493 -0.00175604 0.0 
1.08137 0.1698 0.0 
-4.26243e-58 0 0.0 
1.08908 -0.00271093 0.0 
1.08708 -0.00347561 0.0 
-4.26243e-58 0 0.0 
1.11452 0.00873132 0.0 
1.01555 0.00428854 0.0 
1.10085 0.166135 0.0 
1.11915 0.00819728 0.0 
0.959909 0.00822773 0.0 
1.07202 -0.000430223 0.0 
1.02327 0.013256 0.0 
1.07008 -0.000731271 0.0 
1.09337 -0.0512469 0.0 
0.816927 0.0426118 0.0 
1.06364 0.0729772 0.0 
1.07941 -0.000931455 0.0 
1.10747 0.010457 0.0 
0.90241 -0.3403 0.0 
1.08845 -0.00167061 0.0 
1.07512 -0.0339935 0.0 
1.12751 -0.108496 0.0 
1.07771 -0.0050947 0.0 
0.89909 0.008334 0.0 
0.503784 0.0631718 0.0 
1.07401 -0.000321102 0.0 
1.08758 -0.00215867 0.0 
0.954873 0.00444033 0.0 
0.664261 0.00150853 0.0 
0.97379 -0.0629509 0.0 
0.674592 0.00316826 0.0 
1.08039 0.14082 0.0 
0.953156 -0.0797296 0.0 
1.10671 -0.00938149 0.0 
1.09825 -0.0504732 0.0 
0.740067 0.00291242 0.0 
0.972036 0.0116841 0.0 
0.913051 0.018609 0.0 
1.06874 -0.000160927 0.0 
1.00181 -0.0169324 0.0 
1.08214 -0.00254171 0.0 
1.07363 0.00198642 0.0 
1.1045 -0.0568334 0.0 
1.00423 -0.0226398 0.0 
1.09407 0.0107645 0.0 
1.07555 -0.0407365 0.0 
1.13819 -0.118451 0.0 
1.01661 0.00593607 0.0 
1.11938 -0.000247119 0.0 
1.10755 -0.00762461 0.0 
1.11489 -0.0804236 0.0 
1.0976 -0.0126704 0.0 
1.12152 -0.0233552 0.0 
1.08104 -0.00494127 0.0 
1.08352 -0.00351952 0.0 
1.03701 0.00526926 0.0 
0.952363 0.0217851 0.0 
1.10513 0.00495286 0.0 
1.09528 -0.0116741 0.0 
0.406141 0.0143752 0.0 
0.957307 -0.07435 0.0 
1.06974 -0.000531981 0.0 
0.097581 0.0270827 0.0 
1.15891 -0.0314494 0.0 
1.06773 0.00324452 0.0 
0.946844 -0.0935892 0.0 
1.03185 -0.0528038 0.0 
0.700424 0.0499686 0.0 
1.11196 0.0152684 0.0 
1.06582 0.00321067 0.0 
0.925463 -0.0204082 0.0 
1.10331 -0.00284045 0.0 
1.08159 -0.00627517 0.0 
0.99512 0.0227342 0.0 
1.09388 -0.0103968 0.0 
1.03985 0.0333695 0.0 
1.16028 -0.0370622 0.0 
0.870383 -0.0654451 0.0 
0.742182 0.00999302 0.0 
0.516282 0.0547479 0.0 
1.07171 -0.000209477 0.0 
0.902772 0.0210555 0.0 
0.697184 -0.00203816 0.0 
1.08219 -0.00601881 0.0 
1.07401 -0.00105795 0.0 
1.07415 -0.000865083 0.0 
0.975078 0.0158148 0.0 
1.04114 -0.00656097 0.0 
1.07257 0.00118638 0.0 
1.12435 -0.144474 0.0 
1.05251 0.0468641 0.0 
1.10453 -0.00265912 0.0 
1.03953 -0.145574 0.0 
1.08575 0.0107493 0.0 
1.11023 0.0198425 0.0 
1.06974 -0.000810894 0.0 
0.902177 0.0387109 0.0 
1.07857 0.00232006 0.0 
1.07307 0.00140331 0.0 
1.01905 -0.015883 0.0 
1.08556 -0.00970649 0.0 
1.06877 0 0.0 
1.07227 0.00254638 0.0 
1.09307 -0.00864733 0.0 
1.10122 0.0362861 0.0 
1.05793 -0.00577948 0.0 
1.07026 0.00267955 0.0 
1.04334 0.0374645 0.0 
0.810628 0.0200463 0.0 
1.09097 -0.00948504 0.0 
1.01297 -0.0218358 0.0 
1.08578 -0.00706075 0.0 
1.05502 -0.0192678 0.0 
0.803266 0.01082 0.0 
1.12496 -0.00279783 0.0 
1.09092 -0.0332692 0.0 
1.08643 -0.00746153 0.0 
1.1108 0.00179438 0.0 
1.02847 -0.131914 0.0 
1.11077 -0.00630905 0.0 
0.759771 0.00438089 0.0 
1.08308 -0.00616915 0.0 
1.10888 -0.00363468 0.0 
0.978826 -0.222057 0.0 
1.10773 -0.00619194 0.0 
0.9428 -0.0758497 0.0 
1.11024 -0.00464027 0.0 
0.672871 0.00595724 0.0 
0.964906 -0.0681506 0.0 
1.01485 0.0397789 0.0 
1.09575 0.0114135 0.0 
1.07771 -0.00452181 0.0 
1.06399 -0.0168831 0.0 
1.10142 0.0445736 0.0 
1.02906 0.0572525 0.0 
0.746025 0.00890285 0.0 
0.671022 -0.0114608 0.0 
0.745084 0.00926373 0.0 
0.929145 0.0466204 0.0 
1.07455 -0.00164668 0.0 
0.962403 0.00363885 0.0 
1.08633 0.0170255 0.0 
0.596818 0.0065885 0.0 
1.04541 -0.00704901 0.0 
-4.26243e-58 0 0.0 
1.06948 -0.0739377 0.0 
0.959888 -0.0113092 0.0 
1.07492 -0.0054992 0.0 
1.05633 -0.105671 0.0 
1.02769 0.0311161 0.0 
1.03384 0.031324 0.0 
1.1036 -0.0128638 0.0 
1.11029 0.0491227 0.0 
0.553453 -0.0165459 0.0 
1.03558 -0.021998 0.0 
1.00247 -0.0135841 0.0 
1.13393 0.00511618 0.0 
0.939164 0.0109845 0.0 
1.10478 -0.00561479 0.0 
1.07113 -0.000497851 0.0 
0.97336 -0.0189929 0.0 
1.13303 -0.00476625 0.0 
0.65272 0.0412263 0.0 
0.670979 0.05835 0.0 
1.08807 0.19025 0.0 
0.958335 0.00192873 0.0 
0.711831 0.00781604 0.0 
0.953689 -0.0123056 0.0 
0.750472 -0.0734499 0.0 
0.973568 0.0431362 0.0 
1.0662 -0.0014122 0.0 
1.09427 -0.0113219 0.0 
0.828319 0.00772429 0.0 
0.800991 -0.0915068 0.0 
0.44313 -0.0557632 0.0 
0.966375 -0.0793198 0.0 
1.08172 -0.134134 0.0 
-4.26243e-58 0 0.0 
1.06695 0.000146229 0.0 
1.01474 0.0381998 0.0 
1.10515 -0.00593625 0.0 
0.818692 -0.0993008 0.0 
0.847584 -0.00298409 0.0 
1.07215 -0.0166527 0.0 
1.13757 -0.0934805 0.0 
1.01253 0.0290317 0.0 
1.08226 -0.00551648 0.0 
-4.26243e-58 0 0.0 
1.00018 0.00388085 0.0 
1.05727 0.031558 0.0 
0.953469 0.056793 0.0 
0.998649 0.00558574 0.0 
0.960212 -0.0198478 0.0 
0.766977 0.00818386 0.0 
1.07709 -0.00200231 0.0 
1.0974 0.176331 0.0 
0.675297 0.0244977 0.0 
0.32556 -0.0146251 0.0 
1.07541 0.00292907 0.0 
1.11772 0.0117216 0.0 
1.14332 -0.0543893 0.0 
1.02985 -0.0562784 0.0 
0.806949 0.00864829 0.0 
1.09624 -0.0125115 0.0 
0.960973 0.0113442 0.0 
0.98255 -0.126356 0.0 
1.13906 -0.101708 0.0 
0.380946 0.0038115 0.0 
1.01889 0.0112715 0.0 
-4.26243e-58 0 0.0 
1.0698 0.164956 0.0 
0.954118 -0.0479679 0.0 
0.99361 0.0102132 0.0 
1.06629 -0.0447176 0.0 
0.996924 -0.0344112 0.0 
1.13392 -0.00520079 0.0 
1.07013 -0.000312234 0.0 
0.807018 -0.166917 0.0 
0.958749 -0.00877246 0.0 
0.753762 0.00673192 0.0 
0.918608 -0.00916702 0.0 
0.96436 -0.0622133 0.0 
1.09677 -0.010785 0.0 
1.08228 0.0376095 0.0 
1.06854 0.0793302 0.0 
1.07007 0.0411081 0.0 
1.07871 0.00342802 0.0 
0.695924 0.00218782 0.0 
0.972045 -0.0549953 0.0 
0.979493 0.102347 0.0 
0.725957 0.00492882 0.0 
1.11652 0.016777 0.0 
0.833024 0.0479312 0.0 
1.08905 -0.0874665 0.0 
1.04459 -0.0148504 0.0 
1.10144 -0.0647453 0.0 
1.08331 -0.00902194 0.0 
0.456422 0.0278334 0.0 
1.07746 0.0731684 0.0 
1.00008 0.00507075 0.0 
1.09277 0.0465302 0.0 
1.02764 0.0500121 0.0 
1.06617 0.0313498 0.0 
1.1017 -0.00833982 0.0 
1.13743 0.00625444 0.0 
1.10975 -0.0532716 0.0 
0.993828 0.00603551 0.0 
1.02715 0.0450473 0.0 
1.06989 -0.000325063 0.0 
1.06635 -0.0185843 0.0 
1.10718 -0.0017392 0.0 
1.05026 0.00651744 0.0 
0.978583 0.0255839 0.0 
0.291135 0.0271689 0.0 
0.976377 -0.0398545 0.0 
1.0122 0.12776 0.0 
0.419271 0.0201607 0.0 
1.09836 -0.0116444 0.0 
1.0295 0.247175 0.0 
0.98524 -0.0293391 0.0 
1.0995 0.03875 0.0 
0.975061 -0.00854296 0.0 
0.271543 -0.0437209 0.0 
1.08546 -0.00739419 0.0 
0.525629 0.0375001 0.0 
0.397434 0.0605968 0.0 
0.282343 -0.0312816 0.0 
0.958353 -0.0554645 0.0 
0.496216 0.0478352 0.0 
0.758024 0.0147056 0.0 
0.998622 0.0102508 0.0 
1.07843 0.00126117 0.0 
0.105154 -0.0284674 0.0 
1.00249 -0.148828 0.0 
1.09318 -0.0129015 0.0 
1.0359 0.0592175 0.0 
1.01129 -0.108647 0.0 
0.718322 0.00482801 0.0 
0.991787 -0.0516305 0.0 
-4.26243e-58 0 0.0 
1.08825 -0.00338635 0.0 
1.10055 -0.104182 0.0 
0.593135 0.00555582 0.0 
0.490883 0.0627439 0.0 
1.07355 -0.0170252 0.0 
1.07042 0.00222964 0.0 
1.13331 -0.113365 0.0 
0.97605 0.0304876 0.0 
0.583603 0.0360754 0.0 
0.545416 0.00330365 0.0 
1.08878 -0.0069322 0.0 
1.09584 -0.0138391 0.0 
1.06204 -0.215456 0.0 
0.0803464 -0.00872757 0.0 
0.996342 0.00830217 0.0 
1.03087 0.0293492 0.0 
0.956757 0.0284709 0.0 
0.999781 -7.55905e-05 0.0 
1.11209 0.00544528 0.0 
1.10066 0.0231202 0.0 
1.07806 0.00248538 0.0 
0.576546 -0.0589614 0.0 
1.09957 0.00752557 0.0 
1.07028 0 0.0 
0.585167 -0.0492116 0.0 
0.988147 -0.00118404 0.0 
0.470111 -0.0305842 0.0 
0.993924 0.031964 0.0 
1.05891 0 0.0 
1.0697 -0.000139855 0.0 
1.09179 0.0132707 0.0 
0.851349 0.271883 0.0 
1.06608 0.00275048 0.0 
0.965071 0.0931898 0.0 
1.10578 -0.150835 0.0 
1.11782 0.0318455 0.0 
1.01447 0.0243391 0.0 
1.00641 0.0432703 0.0 
1.10671 0.039047 0.0 
1.05555 -0.00178292 0.0 
0.311975 -0.0167482 0.0 
1.12129 0.00695811 0.0 
-4.26243e-58 0 0.0 
1.15299 -0.0475274 0.0 
0.857479 0.0268575 0.0 
1.07117 0.00234098 0.0 
0.511342 0.0218604 0.0 
1.06105 -0.0473498 0.0 
0.973226 0.013058 0.0 
0.999909 -0.000272531 0.0 
0.926697 0.0127165 0.0 
1.10429 -0.00699569 0.0 
1.02487 0.0298192 0.0 
1.13327 0.00898127 0.0 
1.08909 0.0477081 0.0 
1.02946 0.00392454 0.0 
1.05271 0.0653029 0.0 
0.837439 0.00765896 0.0 
0.00405759 0.00214768 0.0 
1.08474 -0.00719003 0.0 
0.495335 -0.058596 0.0 
0.742261 0.00228494 0.0 
1 0 0.0 
0.645545 -0.0131087 0.0 
1.16154 -0.0591199 0.0 