<VTKFile type="UnstructuredGrid" version="0.1" byte_order="LittleEndian">
  <UnstructuredGrid>
    <Piece NumberOfPoints="17003" NumberOfCells="33813">
      <Points>
        <DataArray type = "Float64" NumberOfComponents="3" format="ascii">
0 0 0.0 
12 0 0.0 
12 4 0.0 
0 4 0.0 
3.31489 2.32896 0.0 
6.63049 0 0.0 
1.20574 0 0.0 
0 2.03118 0.0 
7.24543 2.37344 0.0 
3.67441 2.74747 0.0 
0 1.70279 0.0 
5.70575 2.98528 0.0 
11.3234 0 0.0 
3.65852 0 0.0 
3.63109 1.6941 0.0 
2.34774 2.28924 0.0 
3.14822 0 0.0 
2.55098 0 0.0 
2.72869 2.1731 0.0 
12 2.91971 0.0 
5.36637 0 0.0 
11.586 4 0.0 
5.56878 2.50229 0.0 
5.1594 0 0.0 
9.53375 4 0.0 
12 3.17166 0.0 
3.83762 0 0.0 
6.06535 0 0.0 
4.10903 0 0.0 
0.686314 4 0.0 
4.83493 0 0.0 
5.57611 0 0.0 
2.74369 1.90193 0.0 
5.69372 2.46213 0.0 
5.88083 0 0.0 
3.41722 2.47377 0.0 
6.65286 0.0922782 0.0 
4.13438 3.14363 0.0 
9.40516 0 0.0 
11.3776 4 0.0 
9.22343 4 0.0 
8.14472 0 0.0 
3.20495 1.63981 0.0 
9.57869 0 0.0 
11.6531 0 0.0 
2.44859 2.40764 0.0 
3.50797 2.88271 0.0 
9.11 0 0.0 
3.15243 1.72128 0.0 
2.10649 1.48707 0.0 
2.69072 3.147 0.0 
10.9845 4 0.0 
3.70396 1.41459 0.0 
10.7695 4 0.0 
10.4533 4 0.0 
7.96012 4 0.0 
3.08076 0.991358 0.0 
0.327913 4 0.0 
0.86775 4 0.0 
2.96827 1.79636 0.0 
12 3.55991 0.0 
5.3091 3.06786 0.0 
2.86693 3.03346 0.0 
3.84302 2.05412 0.0 
2.2443 0.904844 0.0 
5.16044 0.692668 0.0 
1.48145 4 0.0 
10.1923 4 0.0 
3.85712 2.39843 0.0 
7.76169 4 0.0 
8.14832 4 0.0 
2.47368 1.5473 0.0 
3.72532 2.60907 0.0 
1.76231 3.08489 0.0 
3.4459 2.41587 0.0 
3.23515 4 0.0 
8.9402 4 0.0 
3.63627 2.71251 0.0 
8.4675 4 0.0 
5.37906 4 0.0 
4.1985 2.82031 0.0 
3.85055 1.46941 0.0 
5.9075 4 0.0 
6.96894 4 0.0 
7.16917 4 0.0 
6.65817 4 0.0 
6.4671 4 0.0 
5.18332 4 0.0 
6.19 4 0.0 
3.00112 1.78511 0.0 
4.27292 2.4058 0.0 
4.9753 4 0.0 
4.69058 4 0.0 
3.42779 2.44382 0.0 
3.32617 1.07069 0.0 
4.19 4 0.0 
4.44 4 0.0 
3.71691 4 0.0 
4.49107 1.39617 0.0 
3.41917 4 0.0 
3.24876 2.03092 0.0 
6.08624 0.852513 0.0 
2.88707 3.57386 0.0 
5.13926 1.01715 0.0 
1.65189 4 0.0 
3.52388 2.35369 0.0 
4.29283 1.66076 0.0 
3.47172 2.85665 0.0 
3.61289 2.96039 0.0 
3.23979 3.08267 0.0 
3.0642 0.879778 0.0 
3.30367 1.59409 0.0 
3.28703 0.836416 0.0 
6.34813 0.126648 0.0 
4.1223 1.02884 0.0 
3.88529 2.76651 0.0 
4.15652 1.55487 0.0 
3.49294 1.57227 0.0 
6.75851 3.54913 0.0 
4.45883 3.26009 0.0 
3.84375 1.4059 0.0 
2.45073 1.99605 0.0 
3.49251 1.47747 0.0 
3.98227 1.68587 0.0 
4.04124 2.87278 0.0 
3.79545 1.64543 0.0 
5.26687 1.58975 0.0 
1.90628 1.0939 0.0 
2.97833 1.67805 0.0 
5.44085 3.11791 0.0 
2.43985 1.7223 0.0 
6.26243 0.7856 0.0 
6.21939 0 0.0 
5.70755 2.06572 0.0 
3.7392 1.56268 0.0 
2.58637 1.44925 0.0 
2.90947 1.48346 0.0 
2.41731 1.07453 0.0 
2.85122 1.46468 0.0 
4.72087 2.62991 0.0 
2.42951 1.69013 0.0 
4.00996 1.11335 0.0 
2.88645 3.72533 0.0 
4.41217 1.0963 0.0 
2.24232 0.983332 0.0 
4.9278 1.52623 0.0 
4.98723 2.9384 0.0 
3.74179 1.70443 0.0 
2.3372 2.96675 0.0 
3.77147 1.57269 0.0 
2.63561 3.08393 0.0 
3.30119 3.19852 0.0 
4.25258 2.26794 0.0 
3.14157 2.60949 0.0 
6.05147 2.54718 0.0 
5.05176 0.712584 0.0 
4.83515 0.841898 0.0 
2.27361 3.09533 0.0 
5.03391 3.12018 0.0 
0.265085 3.48349 0.0 
5.22889 2.63039 0.0 
3.4654 2.69807 0.0 
1.74345 1.84247 0.0 
4.62732 1.598 0.0 
3.43002 1.07314 0.0 
5.54387 1.41571 0.0 
6.1725 0.752793 0.0 
7.41093 2.4613 0.0 
4.66375 1.44741 0.0 
1.7962 2.29954 0.0 
3.2389 1.57273 0.0 
3.28857 2.5488 0.0 
3.96332 1.13745 0.0 
4.48919 3.05278 0.0 
4.12051 1.58012 0.0 
3.25809 3.51351 0.0 
2.91528 1.02708 0.0 
6.51678 0.775513 0.0 
5.2515 0.985317 0.0 
2.84133 1.68881 0.0 
2.36957 2.30935 0.0 
4.22708 2.88886 0.0 
4.81581 1.58798 0.0 
3.07964 1.01856 0.0 
4.61423 1.10788 0.0 
4.50386 1.98726 0.0 
5.08677 1.51947 0.0 
5.45325 2.51931 0.0 
2.74317 1.54017 0.0 
3.83538 1.75828 0.0 
5.07685 2.86269 0.0 
3.67039 1.47062 0.0 
6.8707 3.13691 0.0 
3.36017 3.20157 0.0 
4.28938 0 0.0 
3.92859 1.75983 0.0 
3.01526 3.06892 0.0 
3.58549 1.89314 0.0 
5.72933 0 0.0 
4.76122 2.70584 0.0 
4.6306 2.62889 0.0 
6.9551 1.86088 0.0 
2.24446 2.32051 0.0 
2.23622 1.67147 0.0 
3.3526 2.04281 0.0 
3.37907 3.00092 0.0 
3.15034 2.121 0.0 
5.91724 1.59003 0.0 
1.8687 1.12424 0.0 
3.88521 0.997292 0.0 
1.84627 2.54667 0.0 
8.84816 0.137316 0.0 
2.82723 0.901736 0.0 
5.27112 1.05427 0.0 
4.61976 3.57501 0.0 
1.72617 1.62016 0.0 
4.19497 1.65706 0.0 
1.86878 3.15151 0.0 
3.54154 1.59553 0.0 
5.53926 0.0889695 0.0 
3.83616 1.53699 0.0 
8.1221 0.842632 0.0 
1.99154 1.76002 0.0 
3.10643 2.02128 0.0 
6.03022 2.41635 0.0 
4.77004 3.07143 0.0 
12 2.70513 0.0 
11.0062 3.29344 0.0 
3.71096 2.82272 0.0 
0.279603 3.65266 0.0 
3.36795 1.42701 0.0 
3.14371 2.10315 0.0 
3.97474 1.49622 0.0 
2.62409 1.31675 0.0 
3.43049 2.8681 0.0 
2.46262 2.19422 0.0 
2.8325 1.52039 0.0 
2.89891 1.94174 0.0 
2.98112 2.02899 0.0 
3.31249 1.51663 0.0 
2.42739 3.08091 0.0 
4.56297 1.08355 0.0 
3.28603 1.06702 0.0 
4.83936 2.84299 0.0 
4.98866 1.53982 0.0 
8.06273 1.18252 0.0 
4.70914 2.58228 0.0 
2.53851 1.67305 0.0 
2.75134 2.59316 0.0 
3.22916 2.8621 0.0 
4.98126 0 0.0 
4.84233 0.387687 0.0 
4.49528 1.48578 0.0 
4.55487 1.56749 0.0 
8.48741 0.487731 0.0 
3.01006 1.85762 0.0 
4.4853 0.136404 0.0 
4.9378 0.710742 0.0 
1.81774 1.96137 0.0 
2.36731 2.85744 0.0 
9.25255 0.295212 0.0 
8.8 1.46127 0.0 
3.18901 1.46092 0.0 
6.43334 0.732897 0.0 
2.48924 1.75031 0.0 
2.94651 2.1315 0.0 
1.68525 1.49997 0.0 
2.47594 2.53315 0.0 
3.09508 2.58203 0.0 
7.96724 0.660577 0.0 
3.8012 2.49716 0.0 
7.53274 0.367671 0.0 
1.42852 2.25656 0.0 
2.43717 1.12486 0.0 
4.22299 1.75957 0.0 
2.19529 1.94897 0.0 
5.95245 0.779624 0.0 
4.71474 0.34006 0.0 
3.09467 1.77881 0.0 
2.91136 1.86922 0.0 
3.71216 2.73111 0.0 
4.33386 1.48435 0.0 
7.30694 3.67354 0.0 
2.33888 1.08611 0.0 
3.03671 1.98843 0.0 
0.789193 0.25624 0.0 
1.67141 1.75125 0.0 
1.86522 2.04501 0.0 
5.52233 1.53409 0.0 
4.27001 1.24504 0.0 
3.1007 1.98097 0.0 
1.5338 0.27227 0.0 
6.7552 3.69523 0.0 
2.70793 2.94943 0.0 
4.75662 3.58989 0.0 
7.41509 2.58621 0.0 
2.12509 3.6478 0.0 
2.73426 1.02027 0.0 
5.17286 2.65759 0.0 
5.61349 2.63876 0.0 
2.9188 0.842339 0.0 
6.34214 0.721879 0.0 
2.93788 1.57243 0.0 
5.16414 1.07673 0.0 
2.77068 1.49737 0.0 
8.29537 0.322182 0.0 
4.56977 1.75074 0.0 
1.68287 1.80625 0.0 
2.81199 2.11548 0.0 
6.72283 0.733423 0.0 
2.19502 3.09472 0.0 
5.39088 3.17908 0.0 
3.71413 1.70273 0.0 
1.39118 0.22714 0.0 
6.61103 0.747894 0.0 
6.05923 0.751029 0.0 
7.91093 0.226095 0.0 
2.70567 0.291804 0.0 
3.3859 1.68216 0.0 
3.81257 0.234531 0.0 
2.81332 0.228746 0.0 
2.47115 2.89342 0.0 
3.69434 2.999 0.0 
3.45037 3.14576 0.0 
2.69439 1.00592 0.0 
7.59739 0.263801 0.0 
2.80061 2.10864 0.0 
7.04145 2.81209 0.0 
6.10361 2.1405 0.0 
0.649181 0.321486 0.0 
6.73612 0.832709 0.0 
10.6421 0.309487 0.0 
3.70163 1.51925 0.0 
2.68984 1.91255 0.0 
3.54719 0.294644 0.0 
8.89909 0.431692 0.0 
2.74486 3.06028 0.0 
3.87973 0.63935 0.0 
3.68049 0.29076 0.0 
3.92337 0.293922 0.0 
3.36855 2.44918 0.0 
1.10677 0.352551 0.0 
0.39285 1.25118 0.0 
2.91272 0.285809 0.0 
4.07822 0.821291 0.0 
0.593516 1.27738 0.0 
8.73617 0.461298 0.0 
0.916393 0.263069 0.0 
3.38168 2.09375 0.0 
4.96728 1.42408 0.0 
3.39695 2.00737 0.0 
9.83547 0.406177 0.0 
5.85895 0.744182 0.0 
3.14043 1.4542 0.0 
3.39095 0.251893 0.0 
11.7949 3.27324 0.0 
8.8493 0.549358 0.0 
3.04396 0.317955 0.0 
9.69149 0.453318 0.0 
3.4036 1.78191 0.0 
2.50481 0.32776 0.0 
7.46044 0.213639 0.0 
7.48494 3.44568 0.0 
11.6879 3.08469 0.0 
0.890042 3.775 0.0 
4.61148 1.66282 0.0 
3.97884 0 0.0 
2.60149 0.253608 0.0 
5.11051 2.81216 0.0 
4.24982 0.244254 0.0 
2.39118 0.236716 0.0 
6.90562 3.67608 0.0 
3.21169 0.273771 0.0 
4.98751 2.00808 0.0 
1.74917 0.245954 0.0 
1.87932 0.271734 0.0 
3.88083 1.59753 0.0 
2.94927 0.137401 0.0 
1.16188 3.83114 0.0 
11.16 0.431413 0.0 
5.74032 1.52164 0.0 
4.28955 1.47742 0.0 
10.0094 0.430022 0.0 
0.261848 2.62521 0.0 
3.94894 0.140341 0.0 
7.06606 0.70559 0.0 
3.12093 3.00358 0.0 
7.44289 4 0.0 
4.04693 0.167421 0.0 
10.3407 0.446931 0.0 
4.39512 0.222515 0.0 
3.2802 2.8002 0.0 
2.56951 2.97737 0.0 
4.23917 0.805389 0.0 
2.01709 0.337885 0.0 
9.38358 0.34728 0.0 
8.33342 0.473475 0.0 
11.6514 0.196094 0.0 
3.05777 0.166732 0.0 
2.7267 2.88901 0.0 
4.04285 0.338315 0.0 
0.346527 1.64782 0.0 
0.254948 3.06917 0.0 
4.14472 2.99529 0.0 
1.26479 0.336817 0.0 
2.42727 3.6024 0.0 
2.97696 3.21917 0.0 
4.81229 0.742748 0.0 
1.63732 0.319003 0.0 
3.08251 2.50412 0.0 
2.55181 3.60469 0.0 
3.50525 1.90812 0.0 
10.7931 0.252606 0.0 
3.79239 1.09098 0.0 
3.55414 3.13028 0.0 
7.09385 3.7308 0.0 
11.5549 2.66073 0.0 
11.7998 2.90088 0.0 
1.7409 3.77763 0.0 
10.1945 0.431927 0.0 
0.778952 3.70913 0.0 
7.98885 1.35928 0.0 
11.6807 1.65277 0.0 
0.663914 3.71011 0.0 
11.712 2.20916 0.0 
5.36341 2.52696 0.0 
7.00303 0.581502 0.0 
3.81354 3.63163 0.0 
11.6929 1.16835 0.0 
11.6509 1.86127 0.0 
7.78226 3.74643 0.0 
0.49456 1.09966 0.0 
3.49277 3.55974 0.0 
2.66467 3.54629 0.0 
2.78207 1.76963 0.0 
11.8092 1.8621 0.0 
4.2895 1.70303 0.0 
11.791 3.51495 0.0 
3.83389 0.103605 0.0 
0.0933757 1.56471 0.0 
3.14972 3.23104 0.0 
0.308397 0.898839 0.0 
0.137519 1.42379 0.0 
12 3.37387 0.0 
6.02102 3.74485 0.0 
0.277275 2.32354 0.0 
1.75313 3.14701 0.0 
4.68545 2.97889 0.0 
11.3914 1.82454 0.0 
2.83236 0.104539 0.0 
0.568535 3.83706 0.0 
3.12955 3.55241 0.0 
1.29231 3.90963 0.0 
2.28562 3.04972 0.0 
1.06081 3.71246 0.0 
2.77524 3.62156 0.0 
4.07333 1.71817 0.0 
4.6792 3.70082 0.0 
0.625887 3.55951 0.0 
4.26553 3.62342 0.0 
2.27861 3.6183 0.0 
6.44044 3.74737 0.0 
4.3695 3.24064 0.0 
2.0037 2.06321 0.0 
6.17079 3.67419 0.0 
3.80221 2.97625 0.0 
5.06454 1.69305 0.0 
3.87504 2.2676 0.0 
2.9912 3.58978 0.0 
0.543682 3.68222 0.0 
4.98504 2.87587 0.0 
7.36098 2.66304 0.0 
3.98353 3.10255 0.0 
1.9016 3.74707 0.0 
5.5193 3.5556 0.0 
5.89104 3.84107 0.0 
4.96679 3.61351 0.0 
6.63889 3.63748 0.0 
5.07884 3.525 0.0 
2.20512 2.37418 0.0 
2.75149 1.46407 0.0 
6.02189 1.4675 0.0 
2.99635 0 0.0 
5.89384 3.54813 0.0 
6.19283 3.83348 0.0 
[...]
<PointData>
  <DataArray type = "Float64" Name="Vitesse" NumberOfComponents="3" format="ascii">
1 0 0.0 
1.06033 0 0.0 
1.05234 0 0.0 
1 0 0.0 
0.98856 -0.0237527 0.0 
1.06607 0 0.0 
1.00426 0 0.0 
1 0 0.0 
0.881596 -0.00912208 0.0 
1.11594 -0.00806651 0.0 
1 0 0.0 
1.06736 -0.00765934 0.0 
1.06073 0 0.0 
1.06019 0 0.0 
1.02612 -0.0103216 0.0 
0.939313 0.137325 0.0 
1.04863 0 0.0 
1.031 0 0.0 
0.637978 0.0977157 0.0 
1.03034 -0.00299188 0.0 
1.06882 0 0.0 
1.05262 0 0.0 
0.984886 -0.0163321 0.0 
1.06913 0 0.0 
1.05412 0 0.0 
1.04916 -0.00118356 0.0 
1.06308 0 0.0 
1.06731 0 0.0 
1.06623 0 0.0 
1.00248 0 0.0 
1.06926 0 0.0 
1.06842 0 0.0 
0.851619 -0.0679556 0.0 
0.956359 -0.0162336 0.0 
1.06774 0 0.0 
1.13204 -0.00797679 0.0 
1.06605 0.000191466 0.0 
1.08868 -0.00809939 0.0 
1.06214 0 0.0 
1.05274 0 0.0 
1.05446 0 0.0 
1.06353 0 0.0 
1.0783 -0.0617312 0.0 
1.06199 0 0.0 
1.06055 0 0.0 
1.00625 0.148015 0.0 
1.11253 0.00641373 0.0 
1.06242 0 0.0 
1.04295 -0.0620505 0.0 
0.983407 -0.0389442 0.0 
1.06501 0.04107 0.0 
1.05297 0 0.0 
1.09201 -0.019142 0.0 
1.0531 0 0.0 
1.05332 0 0.0 
1.05638 0 0.0 
1.05603 -0.0333006 0.0 
1.00056 0 0.0 
1.00417 0 0.0 
0.994327 -0.0618496 0.0 
1.05306 -0.00023546 0.0 
1.07099 -0.00883025 0.0 
1.08184 0.0442745 0.0 
0.300425 -0.0124613 0.0 
1.01573 -0.0266896 0.0 
1.07074 0.0012652 0.0 
1.01386 0 0.0 
1.05352 0 0.0 
0.989331 -0.048789 0.0 
1.05681 0 0.0 
1.05602 0 0.0 
1.00273 -0.0811607 0.0 
1.11575 -0.0195454 0.0 
1.01242 0.0266979 0.0 
1.09055 -0.0232386 0.0 
1.07309 0 0.0 
1.0548 0 0.0 
1.11984 -0.0076947 0.0 
1.05548 0 0.0 
1.06861 0 0.0 
1.09172 -0.0171008 0.0 
1.08948 -0.00964602 0.0 
1.06448 0 0.0 
1.0591 0 0.0 
1.05842 0 0.0 
1.06034 0 0.0 
1.06123 0 0.0 
1.07041 0 0.0 
1.06271 0 0.0 
1.00162 -0.061344 0.0 
0.957065 -0.0395191 0.0 
1.07242 0 0.0 
1.07524 0 0.0 
1.1162 -0.0146043 0.0 
1.06836 -0.0299925 0.0 
1.07942 0 0.0 
1.07753 0 0.0 
1.07971 0 0.0 
1.07362 0.00401032 0.0 
1.07662 0 0.0 
0.0384445 -0.00333555 0.0 
1.06822 0.00212286 0.0 
1.06629 0.0154937 0.0 
1.07198 0.00252433 0.0 
1.01821 0 0.0 
0.982899 -0.0477851 0.0 
0.977636 0.0164969 0.0 
1.11512 0.0084507 0.0 
1.10572 0.00192173 0.0 
1.09718 0.0221677 0.0 
1.05304 -0.028709 0.0 
1.08713 -0.0534607 0.0 
1.06048 -0.0230697 0.0 
1.06673 0.000282584 0.0 
1.07756 -0.00587503 0.0 
1.10497 -0.0151524 0.0 
1.05769 0.0060213 0.0 
1.09234 -0.0355198 0.0 
1.06063 -0.00183303 0.0 
1.08148 -0.00816157 0.0 
1.08992 -0.0115874 0.0 
0.687976 -0.20103 0.0 
1.09341 -0.0345532 0.0 
0.982677 0.0141023 0.0 
1.09641 -0.0139001 0.0 
1.04445 -0.000455802 0.0 
0.983384 0.0117403 0.0 
1.0015 -0.0219199 0.0 
1.07181 -0.0783836 0.0 
1.06968 -0.00775855 0.0 
0.970914 -0.108725 0.0 
1.06768 0.00186267 0.0 
1.06697 0 0.0 
0.654661 -0.00439509 0.0 
1.08487 -0.0124834 0.0 
1.02323 -0.0734713 0.0 
1.06071 -0.0704833 0.0 
1.01958 -0.0382618 0.0 
1.05442 -0.0714695 0.0 
1.06195 -0.0206229 0.0 
0.975828 -0.0996542 0.0 
1.07986 -0.00816525 0.0 
1.06422 0.00970439 0.0 
1.07718 -0.000998707 0.0 
1.0139 -0.0295443 0.0 
1.0309 0.00993797 0.0 
1.07464 -0.0120539 0.0 
0.997068 0.00367445 0.0 
1.0371 0.0535021 0.0 
1.08013 -0.00926694 0.0 
1.06216 0.0465781 0.0 
1.09208 0.0165446 0.0 
0.736255 -0.0441958 0.0 
1.1443 0.0464723 0.0 
0.997346 -0.0120872 0.0 
1.07116 0.0010951 0.0 
1.07258 0.00081191 0.0 
1.03526 0.0425645 0.0 
1.07396 -0.00946667 0.0 
1.00027 0.00130017 0.0 
1.04735 -0.0157 0.0 
1.12911 0.00471281 0.0 
0.972906 -0.00273008 0.0 
1.0056 0.0128471 0.0 
1.0718 -0.0265785 0.0 
1.0481 0.00649838 0.0 
1.06787 0.0018165 0.0 
0.931567 -0.00826666 0.0 
1.06266 0.00640617 0.0 
0.975643 0.0285785 0.0 
1.08566 -0.0573038 0.0 
1.15176 0.0208187 0.0 
1.08064 -0.00934167 0.0 
1.08269 -0.0118451 0.0 
1.0498 0.0069884 0.0 
1.07964 0.0110201 0.0 
1.04843 -0.0379313 0.0 
1.06705 0.00171754 0.0 
1.07137 0.00252567 0.0 
1.06738 -0.0949091 0.0 
0.951775 0.145303 0.0 
1.09032 -0.0150999 0.0 
1.00271 0.0123662 0.0 
1.05658 -0.0345833 0.0 
1.07573 0.00100236 0.0 
0.513306 0.00569019 0.0 
1.02751 0.00950251 0.0 
0.997629 -0.0170111 0.0 
1.04513 -0.0848243 0.0 
0.898749 0.0196395 0.0 
1.07265 -0.0125422 0.0 
1.0938 -0.020833 0.0 
1.06133 -0.0032033 0.0 
1.09296 0.0140252 0.0 
1.06764 0 0.0 
0.880984 0.0230168 0.0 
1.08925 0.034993 0.0 
0.589127 0.0282722 0.0 
1.06808 0 0.0 
1.07168 -0.0179457 0.0 
1.06515 -0.0216298 0.0 
0.777817 0.00643951 0.0 
0.949781 0.0955654 0.0 
0.961828 -0.0578197 0.0 
-1.56866e-69 0 0.0 
1.10481 0.0152752 0.0 
0.110575 -0.0146746 0.0 
0.965526 0.0102979 0.0 
0.999972 -0.0210727 0.0 
1.07652 -0.0111891 0.0 
0.989796 0.0394339 0.0 
1.06273 0.000146545 0.0 
1.04252 -0.0322743 0.0 
1.07136 0.00288361 0.0 
1.07719 -0.00433841 0.0 
0.98119 -0.0121149 0.0 
0.989593 0.01509 0.0 
1.01717 0.0279699 0.0 
1.08807 -0.0299893 0.0 
1.06855 0.000179546 0.0 
1.08376 -0.00740263 0.0 
1.06392 0.00117279 0.0 
0.960277 -0.02056 0.0 
0.119722 -0.00189999 0.0 
0.916371 -0.0146569 0.0 
1.07773 -0.0110825 0.0 
0.990039 -0.00516876 0.0 
1.05292 -0.000555958 0.0 
1.1104 -0.00659808 0.0 
1.00035 0.000944857 0.0 
1.08667 -0.0417888 0.0 
0.0204274 -0.00247635 0.0 
1.08248 -0.00291834 0.0 
1.02948 -0.059907 0.0 
1.11472 0.0115969 0.0 
0.893941 0.259115 0.0 
1.05511 -0.0780743 0.0 
0.504901 0.00930164 0.0 
0.0858713 0.00491701 0.0 
1.08855 -0.0495706 0.0 
1.04582 0.046561 0.0 
1.07592 0.000413092 0.0 
1.06677 -0.0311415 0.0 
1.07604 -0.0144677 0.0 
1.02245 0.010331 0.0 
1.05257 0.00248763 0.0 
1.05051 -0.0224777 0.0 
1.00424 -0.111681 0.0 
1.09781 0.106013 0.0 
1.11416 0.0283747 0.0 
1.06924 0 0.0 
1.07015 -4.50157e-05 0.0 
1.06063 0.00683348 0.0 
1.0282 0.0109622 0.0 
1.06345 0.000575391 0.0 
0.823729 -0.0306538 0.0 
1.06879 -0.000517615 0.0 
1.07148 0.000766243 0.0 
0.965427 0.00433019 0.0 
1.03659 0.0642353 0.0 
1.06243 0.000282247 0.0 
0.986145 0.00478118 0.0 
1.07935 -0.0542069 0.0 
1.0672 0.00165468 0.0 
0.978363 -0.128038 0.0 
0.0847275 0.000754787 0.0 
0.986658 -0.0135333 0.0 
1.03293 0.119305 0.0 
1.14695 0.0558544 0.0 
1.0643 0.000919169 0.0 
1.08297 -0.0343394 0.0 
1.06463 0.000587665 0.0 
0.988092 0.0136682 0.0 
1.0195 -0.0415557 0.0 
0.850514 0.0242919 0.0 
0.905657 -0.0168382 0.0 
1.0685 0.0019644 0.0 
1.06997 -0.000390794 0.0 
0.98494 -0.0553357 0.0 
0.839115 -0.0331745 0.0 
1.11487 -0.0107967 0.0 
1.06765 0.0052365 0.0 
1.05842 -0.000962936 0.0 
1.01531 -0.0366892 0.0 
0.258711 0.00304881 0.0 
1.00142 -0.00110334 0.0 
0.979054 -0.00552605 0.0 
0.961034 0.0119762 0.0 
1.00771 0.0093671 0.0 
1.08051 -0.00155564 0.0 
0.288434 -0.00416685 0.0 
1.0074 -0.00375402 0.0 
1.06028 -0.00124583 0.0 
1.07191 0.0571333 0.0 
1.07558 -0.00425213 0.0 
0.990787 -0.00702386 0.0 
1.03276 0.0133983 0.0 
1.03821 -0.0388746 0.0 
1.05472 -0.015479 0.0 
1.04084 -0.0128016 0.0 
1.0462 -0.0288394 0.0 
1.0674 0.00166843 0.0 
1.06816 -0.0763584 0.0 
1.07194 0.00287598 0.0 
1.04701 -0.0782699 0.0 
1.0635 0.000404134 0.0 
0.846882 0.0212958 0.0 
0.97709 -0.00327229 0.0 
0.0107801 0.00165651 0.0 
1.06655 0.00152479 0.0 
1.03045 0.0404709 0.0 
1.07002 -0.00740621 0.0 
1.00387 0.000807659 0.0 
1.0058 -0.0025995 0.0 
1.06681 0.00160917 0.0 
1.06817 0.00185233 0.0 
1.06394 0.000319887 0.0 
1.03569 -0.00898385 0.0 
1.05796 -0.0455782 0.0 
1.06352 -0.00341311 0.0 
1.03901 -0.0069541 0.0 
1.04795 0.0638156 0.0 
1.10219 -0.000886273 0.0 
1.09666 0.0106743 0.0 
1.03591 -0.0380547 0.0 
1.06443 0.000412293 0.0 
-1.56866e-69 0 0.0 
1.04928 -0.00469453 0.0 
0.708553 -0.00803198 0.0 
1.00085 -0.00103278 0.0 
1.06659 0.00173747 0.0 
1.06133 0.000207354 0.0 
1.09204 -0.0174277 0.0 
0.866463 -0.104849 0.0 
1.05926 -0.00598647 0.0 
1.06292 0.00045439 0.0 
1.07143 0.0464299 0.0 
1.06877 -0.00815336 0.0 
1.06176 -0.00508993 0.0 
1.06535 -0.00362874 0.0 
1.12971 -0.00414148 0.0 
1.00295 -0.00258814 0.0 
0.999681 -0.000735492 0.0 
1.04229 -0.00861744 0.0 
1.07341 -0.00648117 0.0 
0.999243 -0.00129613 0.0 
1.06313 0.000506986 0.0 
1.002 -0.00146117 0.0 
0.132728 -0.0287819 0.0 
1.05855 0.00658981 0.0 
0.0670071 -0.00849425 0.0 
1.06201 0.000331343 0.0 
1.06872 0.00187898 0.0 
1.07607 -0.0564243 0.0 
1.0555 -0.00589196 0.0 
1.05186 -0.000675666 0.0 
1.06309 0.000591347 0.0 
1.04644 -0.00924202 0.0 
1.06218 0.000389245 0.0 
0.929432 -0.0361326 0.0 
1.02932 -0.00983359 0.0 
1.06461 0.000348909 0.0 
1.05864 -0.00145868 0.0 
1.0454 -0.00106028 0.0 
1.00416 0.00234144 0.0 
0.952721 0.0165976 0.0 
1.06491 0 0.0 
1.03238 -0.00769046 0.0 
1.07097 -0.0130432 0.0 
1.06804 -0.00161435 0.0 
1.02604 -0.00678273 0.0 
1.05973 -0.00121134 0.0 
1.05102 -0.00727575 0.0 
0.578833 0.000778184 0.0 
1.01084 -0.00431402 0.0 
1.01319 -0.00543118 0.0 
1.06252 -0.00029578 0.0 
1.04303 -0.00406371 0.0 
1.0077 0.00259231 0.0 
1.06108 0.000267501 0.0 
1.00743 0.00852991 0.0 
1.07049 0.00431759 0.0 
1.06189 0.000336718 0.0 
0.999912 0.00196586 0.0 
1.06483 -0.00170146 0.0 
1.06583 0.00131168 0.0 
1.09858 0.0319578 0.0 
1.05763 0 0.0 
1.06602 -0.00170991 0.0 
1.06163 0.000322132 0.0 
1.06875 -0.00103219 0.0 
1.1213 0.0245712 0.0 
1.05791 0.0562883 0.0 
1.0735 -0.00413667 0.0 
1.01582 -0.0076869 0.0 
1.06235 0.000320749 0.0 
1.06361 0.0005884 0.0 
1.06063 0.000115241 0.0 
1.04628 -0.00478275 0.0 
1.07603 0.0627752 0.0 
1.06695 -0.0034329 0.0 
0.999549 0.00019565 0.0 
1.0001 0.00186464 0.0 
1.0911 -0.0115498 0.0 
1.0042 -0.00313836 0.0 
1.04569 0.0167326 0.0 
1.07994 0.0289805 0.0 
1.07203 0.000382434 0.0 
1.00868 -0.00492838 0.0 
1.15945 0.0621342 0.0 
1.05138 0.0165708 0.0 
0.558791 0.00428922 0.0 
1.06119 0.000164129 0.0 
1.0788 -0.0143978 0.0 
1.09754 0.0062891 0.0 
1.05895 -0.000901116 0.0 
0.980694 -0.00315597 0.0 
1.02776 -0.00171086 0.0 
1.02015 0.00637479 0.0 
1.06174 0.000322304 0.0 
1.00302 0.00254655 0.0 
1.02553 0.00376325 0.0 
0.91155 0.00358965 0.0 
1.00214 0.00209117 0.0 
0.859245 -0.00243845 0.0 
1.00466 -0.0174001 0.0 
1.0658 0.00110228 0.0 
1.08287 0.000666545 0.0 
1.03196 0.00172239 0.0 
0.858708 0.00233048 0.0 
1.05705 -0.000572245 0.0 
0.999691 -0.00126691 0.0 
1.08256 0.00561474 0.0 
1.05697 0.0187131 0.0 
1.06185 -0.110136 0.0 
0.859751 0.00195562 0.0 
0.929262 0.0197579 0.0 
1.05319 -0.000323366 0.0 
1.06325 -0.00147703 0.0 
0.999976 9.72073e-06 0.0 
1.08649 0.0220037 0.0 
0.999969 -0.000794184 0.0 
0.999956 -0.000112517 0.0 
1.05252 -0.000501673 0.0 
1.06395 -0.00163045 0.0 
0.999756 0.00168769 0.0 
1.01359 0.0247363 0.0 
1.07941 -0.012886 0.0 
0.86445 0.00265429 0.0 
1.03948 -0.00315417 0.0 
1.00162 0.000989279 0.0 
1.07523 0.012535 0.0 
1.00994 0.00166704 0.0 
1.03516 0.0458812 0.0 
1.00601 0.00382625 0.0 
1.06106 0.0146237 0.0 
0.930441 0.0201461 0.0 
1.07599 -0.00301665 0.0 
1.00175 0.00287078 0.0 
1.08062 -0.0028505 0.0 
1.03905 0.0155341 0.0 
1.0616 -0.00125201 0.0 
1.08308 -0.00814882 0.0 
0.944197 0.0166845 0.0 
1.06317 -0.00190065 0.0 
1.10069 -0.00523507 0.0 
0.902493 0.0159808 0.0 
0.729694 -0.0610462 0.0 
1.06994 0.0134949 0.0 
1.0014 0.00180281 0.0 
1.0742 -0.0129689 0.0 
1.01726 -0.00592732 0.0 
1.09258 -0.00673759 0.0 
1.02501 0.00830294 0.0 
1.06801 -0.00371688 0.0 
1.06469 -0.00109145 0.0 
1.0732 -0.0039381 0.0 
1.0609 -0.00159237 0.0 
1.07226 -0.00475956 0.0 
0.964574 0.0855084 0.0 
1.0437 -0.0749317 0.0 
1.02302 0.00726681 0.0 
1.04431 0 0.0 
1.06517 -0.00309424 0.0 
1.06279 -0.000955988 0.0 
1.0874 -0.01029 0.0 
1.05926 -0.000658385 0.0 
1.08339 0.0085818 0.0 
1.07255 0.0016747 0.0 
1.01503 -0.0625059 0.0 
1.06396 -0.00241736 0.0 
1.06122 -0.00243266 0.0 
1.06715 -0.0148407 0.0 
1.02571 0.00847593 0.0 
0.952486 0.0114276 0.0 
1.05374 -0.000188189 0.0 
1.03519 -0.0156285 0.0 
1.06721 -0.00206091 0.0 
1.091 -0.0285574 0.0 
1.07419 -0.00285476 0.0 
1.07501 0.00675485 0.0 
0.847136 0.00165416 0.0 
0.995248 0.0132199 0.0 
0.994369 0.0114112 0.0 
1.08514 -0.00718266 0.0 
0.395052 -0.0728805 0.0 
1.09035 -0.0113217 0.0 
1.05669 -0.000268242 0.0 
1.10996 0.0119662 0.0 
0.991989 -0.0574374 0.0 
1.07122 0.00145216 0.0 
1.07863 -0.00564505 0.0 
1.05848 -0.00145903 0.0 
1.09524 0.199918 0.0 
0.183047 0.000539522 0.0 
1.07173 -0.00314218 0.0 
1.06951 -0.00373618 0.0 
0.390747 -0.00464377 0.0 
1.10232 -0.00267806 0.0 
1.01631 0.00439025 0.0 
0.442138 0.0632446 0.0 
1.10626 -0.00477563 0.0 
0.984289 0.00579102 0.0 
1.05573 -0.000339163 0.0 
1.02418 0.0136136 0.0 
1.05459 -0.000553092 0.0 
1.05194 -0.0349203 0.0 
0.947259 0.0182136 0.0 
1.07155 0.0729472 0.0 
1.06203 -0.000858286 0.0 
1.09672 0.00119753 0.0 
0.95997 -0.18609 0.0 
1.07109 -0.00190869 0.0 
1.04367 -0.0227461 0.0 
1.06282 -0.0663105 0.0 
1.06086 -0.00455136 0.0 
0.935225 0.00628612 0.0 
0.845124 0.0120071 0.0 
1.05729 -0.00026757 0.0 
1.07011 -0.00238192 0.0 
0.963981 0.00963319 0.0 
0.724131 0.00270665 0.0 
0.980253 -0.0365068 0.0 
0.73733 0.00392345 0.0 
1.10665 0.162133 0.0 
0.968008 -0.0475298 0.0 
1.08825 -0.0149558 0.0 
1.05473 -0.035165 0.0 
0.788009 0.00327343 0.0 
1.00012 0.00699283 0.0 
0.968911 0.0101763 0.0 
1.05325 -0.000113985 0.0 
0.999534 -0.00868299 0.0 
1.06464 -0.00245022 0.0 
1.06426 0.0010965 0.0 
1.0571 -0.0394136 0.0 
1.00068 -0.0121943 0.0 
1.07301 0.0016346 0.0 
1.04308 -0.0268129 0.0 
1.074 -0.0735001 0.0 
1.0259 0.00384428 0.0 
1.10316 -0.0119758 0.0 
1.08964 -0.0137747 0.0 
1.07809 -0.065042 0.0 
1.07863 -0.0148452 0.0 
1.07298 -0.0251127 0.0 
1.06401 -0.00454027 0.0 
1.06598 -0.00346851 0.0 
1.04016 0.00329288 0.0 
1.00029 0.0103824 0.0 
1.07455 -0.00465296 0.0 
1.07672 -0.0132451 0.0 
0.567564 0.0166112 0.0 
0.970305 -0.0440778 0.0 
1.05423 -0.000393511 0.0 
0.44595 0.0381083 0.0 
1.08987 -0.0407958 0.0 
1.06054 0.00184776 0.0 
1.05139 -0.0706075 0.0 
1.01609 -0.0310463 0.0 
0.890711 0.0227841 0.0 
1.1026 0.00373911 0.0 
1.05932 0.00184697 0.0 
0.897263 -0.0189275 0.0 
1.08737 -0.00819071 0.0 
1.06449 -0.00581031 0.0 
1.02859 0.00911847 0.0 
1.07566 -0.0116923 0.0 
1.07533 -0.00931087 0.0 
1.08945 -0.0439968 0.0 
1.01489 -0.0594293 0.0 
0.8123 0.00821265 0.0 
0.791042 0.0287045 0.0 
1.05544 -0.000163545 0.0 
0.965361 0.0112322 0.0 
0.739593 -0.000377328 0.0 
1.06507 -0.00561186 0.0 
1.05747 -0.000871341 0.0 
1.0575 -0.000718974 0.0 
1.00831 0.00815272 0.0 
1.02309 -0.00594171 0.0 
1.06384 0.000664726 0.0 
1.06474 -0.0836879 0.0 
1.05563 0.0460142 0.0 
1.07082 -0.00849852 0.0 
1.01747 -0.0820018 0.0 
1.07923 0.00750063 0.0 
1.10281 0.00825481 0.0 
1.05434 -0.00059929 0.0 
1.03594 -0.0219723 0.0 
1.06675 0.000916721 0.0 
1.06409 0.000772588 0.0 
0.992754 -0.0152903 0.0 
1.06765 -0.00952786 0.0 
1.05321 0 0.0 
1.06335 0.00141593 0.0 
1.07513 -0.0099087 0.0 
1.10049 0.0258725 0.0 
1.04029 -0.00519987 0.0 
1.0621 0.00151491 0.0 
1.04536 0.0372401 0.0 
0.894638 0.0126684 0.0 
1.073 -0.0101603 0.0 
1.00612 -0.0121774 0.0 
1.06826 -0.00699276 0.0 
1.02802 -0.0195599 0.0 
0.864577 0.00847182 0.0 
1.10688 -0.0163805 0.0 
1.05343 -0.0243461 0.0 
1.06886 -0.00745435 0.0 
1.09621 -0.00712771 0.0 
1.01185 -0.0748086 0.0 
1.09308 -0.013853 0.0 
0.808399 0.00431712 0.0 
1.06585 -0.00583749 0.0 
1.09233 -0.0109266 0.0 
0.986165 -0.121257 0.0 
1.09031 -0.012638 0.0 
1.04068 -0.064069 0.0 
1.09321 -0.0122624 0.0 
0.74597 0.00601618 0.0 
0.974795 -0.0399717 0.0 
1.01709 0.0411385 0.0 
1.07372 0.00141875 0.0 
1.06102 -0.00400085 0.0 
1.03951 -0.0170003 0.0 
1.10347 0.0338186 0.0 
1.03246 0.0589227 0.0 
0.810647 0.00761446 0.0 
0.694409 -0.00797067 0.0 
0.812526 0.00787308 0.0 
1.03986 -0.00267507 0.0 
1.05816 -0.00135644 0.0 
0.970024 0.00916868 0.0 
1.08825 -0.0237468 0.0 
0.867669 -0.0421276 0.0 
1.02697 -0.0064248 0.0 
0.543441 -0.0114183 0.0 
1.03634 -0.0450055 0.0 
0.968901 -0.00236242 0.0 
1.05782 -0.0049363 0.0 
1.06973 -0.0735867 0.0 
1.0294 0.0317436 0.0 
1.05686 0.00740504 0.0 
1.08416 -0.0169396 0.0 
1.11376 0.0355861 0.0 
0.83792 -0.0396372 0.0 
1.00495 -0.0223093 0.0 
1.00024 -0.0068439 0.0 
1.11772 -0.0132022 0.0 
1.04041 -0.0422169 0.0 
1.06968 -0.0103396 0.0 
1.05512 -0.000379929 0.0 
0.979216 -0.00796872 0.0 
1.11017 -0.0231823 0.0 
0.832693 0.0234398 0.0 
0.942942 -0.00775787 0.0 
0.401646 0.0593917 0.0 
0.966902 0.00773984 0.0 
0.780661 0.00705343 0.0 
0.964292 -0.00325615 0.0 
0.839652 -0.0764319 0.0 
1.04601 0.00513959 0.0 
1.05093 -0.00115414 0.0 
1.07585 -0.0126533 0.0 
0.875213 0.00634437 0.0 
0.875627 -0.0753605 0.0 
0.379168 -0.0539932 0.0 
0.976134 -0.0466197 0.0 
1.03957 -0.0767952 0.0 
0.498439 -0.0181584 0.0 
1.06039 0.000109363 0.0 
1.05694 0.0054161 0.0 
1.08796 -0.0114851 0.0 
1.05474 -0.095168 0.0 
0.862496 -0.00227844 0.0 
1.04876 -0.0169356 0.0 
1.06836 -0.0606265 0.0 
1.01433 0.0302289 0.0 
1.06509 -0.00516504 0.0 
0.339675 0.0107431 0.0 
1.00048 0.00466848 0.0 
1.0688 0.00437858 0.0 
0.957632 0.055888 0.0 
0.999333 0.00712357 0.0 
0.96959 -0.00855416 0.0 
0.826637 0.00701136 0.0 
1.06015 -0.00175252 0.0 
0.502978 0.075544 0.0 
0.802845 0.0167522 0.0 
0.697589 -0.028295 0.0 
1.06519 0.00146819 0.0 
1.10637 -0.00127037 0.0 
1.07627 -0.0447777 0.0 
1.01473 -0.0329907 0.0 
0.860296 0.00705791 0.0 
1.0774 -0.0143032 0.0 
0.991794 0.006945 0.0 
0.986919 -0.0725489 0.0 
1.0685 -0.0642942 0.0 
0.51627 0.00993037 0.0 
1.0331 0.00575758 0.0 
0.209584 0.0204836 0.0 
1.09171 0.197825 0.0 
0.966807 -0.0277903 0.0 
1.01414 0.00598158 0.0 
1.0371 -0.0283115 0.0 
0.995337 -0.0189415 0.0 
1.10752 -0.0262504 0.0 
1.05431 -0.000231699 0.0 
1.02524 -0.17294 0.0 
0.944715 -0.00771156 0.0 
0.810687 0.00608731 0.0 
0.908047 -0.00795453 0.0 
0.974211 -0.0363558 0.0 
1.07837 -0.0128511 0.0 
1.08307 0.0319001 0.0 
1.07829 0.0795359 0.0 
1.07212 0.0376664 0.0 
1.06685 0.00140278 0.0 
0.751317 0.00303652 0.0 
0.978946 -0.031636 0.0 
0.978555 0.106763 0.0 
0.78339 0.00490936 0.0 
1.09196 -0.0154324 0.0 
0.969621 0.0168641 0.0 
1.04569 -0.0535657 0.0 
1.02012 -0.0144341 0.0 
1.05441 -0.0431075 0.0 
1.0655 -0.0086714 0.0 
0.649434 0.0234244 0.0 
1.08697 0.0706167 0.0 
1.00053 0.0060819 0.0 
1.09566 0.0381923 0.0 
1.03054 0.0512988 0.0 
1.07383 0.00197985 0.0 
1.08382 -0.0122988 0.0 
1.12075 -0.0139162 0.0 
1.08023 -0.0585204 0.0 
0.995383 0.00890524 0.0 
1.02973 0.0461227 0.0 
1.05416 -0.000239526 0.0 
1.04086 -0.0190943 0.0 
1.09147 -0.00872869 0.0 
1.05031 0.00352223 0.0 
0.982653 0.0279328 0.0 
0.530761 0.029538 0.0 
0.981553 -0.0219844 0.0 
-1.56866e-69 0 0.0 
0.595966 0.0199801 0.0 
1.07968 -0.0141036 0.0 
0.993051 0.269496 0.0 
0.987644 -0.0153142 0.0 
1.09968 0.0287124 0.0 
0.959334 -0.00765079 0.0 
0.262761 -0.0316174 0.0 
1.06798 -0.00724882 0.0 
0.73146 0.0260687 0.0 
0.804507 -0.00804041 0.0 
0.856368 -0.0357323 0.0 
0.970025 -0.0323844 0.0 
0.847264 -0.0316034 0.0 
0.960342 -0.0436987 0.0 
0.999776 0.0119424 0.0 
1.06664 0.000490356 0.0 
0.110823 -0.0202993 0.0 
0.99797 -0.0839287 0.0 
1.07425 -0.0139859 0.0 
1.03978 0.0606524 0.0 
1.00274 -0.0623146 0.0 
0.775962 0.00486195 0.0 
0.991621 -0.0294126 0.0 
0.157804 -0.016649 0.0 
1.07075 -0.00377635 0.0 
1.05028 -0.0626748 0.0 
0.682143 0.00648746 0.0 
0.830439 0.0165402 0.0 
1.04991 -0.0174562 0.0 
1.06219 0.00131023 0.0 
1.06542 -0.0688414 0.0 
0.980268 0.0324544 0.0 
0.768241 0.023666 0.0 
0.638632 0.00551119 0.0 
1.07107 -0.0073786 0.0 
1.07644 -0.0155957 0.0 
1.02904 -0.11979 0.0 
0.0671458 -0.0141444 0.0 
0.997622 0.0104493 0.0 
1.03243 0.0297855 0.0 
0.963559 0.0299402 0.0 
0.999827 0.000716605 0.0 
1.09884 -0.00456665 0.0 
1.08143 -0.000201601 0.0 
1.06654 0.00101985 0.0 
0.484006 -0.0660385 0.0 
1.07359 -0.0014037 0.0 
1.06267 0 0.0 
0.905925 -0.043672 0.0 
0.990564 0.00393167 0.0 
0.489037 -0.0207567 0.0 
0.996544 0.0337545 0.0 
1.03547 0 0.0 
1.05392 -0.000102851 0.0 
1.07289 0.00297878 0.0 
0.809007 0.272052 0.0 
1.05937 0.00164053 0.0 
0.964416 0.094636 0.0 
1.0518 -0.0856833 0.0 
1.11432 0.0164833 0.0 
1.01601 0.0253656 0.0 
1.00881 0.0449092 0.0 
1.1066 0.0268425 0.0 
1.0406 -0.00150315 0.0 
0.399071 -0.00334099 0.0 
1.10769 -0.00660283 0.0 
0.307344 -0.029164 0.0 
1.08861 -0.0524269 0.0 
0.943377 0.014066 0.0 
1.06267 0.00135194 0.0 
0.671073 0.0184756 0.0 
1.03376 -0.029435 0.0 
0.978413 0.0168922 0.0 
0.999925 0.000333721 0.0 
0.968047 0.00795477 0.0 
1.08677 -0.0120668 0.0 
1.02654 0.0305499 0.0 
1.09273 -0.0176676 0.0 
1.09238 0.0403296 0.0 