<VTKFile type="UnstructuredGrid" version="0.1" byte_order="LittleEndian">
  <UnstructuredGrid>
    <Piece NumberOfPoints="15756" NumberOfCells="31026">
      <Points>
        <DataArray type = "Float64" NumberOfComponents="3" format="ascii">
3.5 2.00105 0.0 
3.5 1.99895 0.0 
0 0 0.0 
12 0 0.0 
0 4 0.0 
12 4 0.0 
1.9851 0.464008 0.0 
6.54577 2.37301 0.0 
1.84447 1.95792 0.0 
2.78803 1.93777 0.0 
3.46822 2.00422 0.0 
3.4492 2.00609 0.0 
9.75011 0.429191 0.0 
4.50028 4 0.0 
3.4284 2.00811 0.0 
4.2924 2.85568 0.0 
3.40943 2.00992 0.0 
3.89371 3.20948 0.0 
3.39055 2.01171 0.0 
10.5646 0.785159 0.0 
3.37064 2.01358 0.0 
3.76085 1.38706 0.0 
3.94143 1.77338 0.0 
6.50172 2.23987 0.0 
3.3441 2.01602 0.0 
8.71414 3.48589 0.0 
3.32932 2.01737 0.0 
3.31416 2.01873 0.0 
6.45766 3.19694 0.0 
3.30101 2.01991 0.0 
4.25007 4 0.0 
6.21511 1.68343 0.0 
3.28104 2.02167 0.0 
11.443 2.87979 0.0 
3.26112 2.02341 0.0 
7.27082 2.03327 0.0 
7.00257 2.02554 0.0 
3.54479 2.96196 0.0 
3.23123 2.02597 0.0 
9.6262 0.214678 0.0 
8.28155 1.27045 0.0 
3.21131 2.02765 0.0 
3.20135 2.02848 0.0 
3.18889 2.02951 0.0 
3.17635 2.03053 0.0 
0.759789 2.22952 0.0 
6.31241 3.69051 0.0 
3.16034 2.03183 0.0 
3.15052 2.03262 0.0 
0.628639 2.20506 0.0 
6.18605 3.69419 0.0 
3.13957 2.03349 0.0 
8.2554 3.03856 0.0 
3.1296 2.03426 0.0 
3.59434 3.23904 0.0 
3.12171 2.03487 0.0 
5.00555 1.54171 0.0 
3.11166 2.03562 0.0 
4.05562 1.64375 0.0 
3.10169 2.03635 0.0 
8.08727 1.03907 0.0 
3.0922 2.03704 0.0 
9.87757 2.91797 0.0 
3.08224 2.03774 0.0 
7.9699 1.83369 0.0 
3.07177 2.03847 0.0 
3.05986 2.03927 0.0 
3.04983 2.03993 0.0 
2.29977 2.41319 0.0 
3.03985 2.04058 0.0 
4.30691 0 0.0 
3.02987 2.04121 0.0 
8.66013 2.72876 0.0 
3.0199 2.04182 0.0 
3.00992 2.04242 0.0 
6.93534 2.09444 0.0 
3.00193 2.04289 0.0 
3.08598 1.86585 0.0 
8.139 0.957062 0.0 
2.98711 2.04373 0.0 
2.01521 3.15177 0.0 
2.97747 2.04427 0.0 
10.0614 2.26476 0.0 
2.96958 2.04469 0.0 
3.47062 0 0.0 
2.96201 2.04509 0.0 
3.62467 1.98953 0.0 
2.95043 2.04569 0.0 
9.9963 2.9126 0.0 
2.94005 2.0462 0.0 
2.93089 2.04665 0.0 
3.19113 1.96932 0.0 
7.39877 0.820068 0.0 
2.92007 2.04715 0.0 
9.25464 2.64568 0.0 
2.91208 2.04752 0.0 
4.90901 0.0899404 0.0 
10.8572 2.96282 0.0 
2.8996 2.04807 0.0 
2.8946 2.04828 0.0 
8.13323 0.520161 0.0 
2.88961 2.04847 0.0 
1.66722 1.31528 0.0 
2.88461 2.04866 0.0 
2.88003 2.04882 0.0 
6.53104 2.17607 0.0 
3.48566 3.07454 0.0 
2.87462 2.04899 0.0 
2.99397 0.793997 0.0 
2.86962 2.04914 0.0 
3.68904 2.43563 0.0 
5.55297 1.19165 0.0 
2.85755 2.04945 0.0 
2.86213 2.04934 0.0 
5.00296 2.24736 0.0 
11.0785 1.20913 0.0 
2.85213 2.04957 0.0 
8.44458 0.81353 0.0 
2.84714 2.04967 0.0 
5.12905 1.87395 0.0 
2.84214 2.04975 0.0 
2.83714 2.04983 0.0 
12 2.76485 0.0 
2.7008 2.0473 0.0 
2.83214 2.04989 0.0 
2.82714 2.04994 0.0 
6.68151 2.2692 0.0 
2.81965 2.04999 0.0 
2.82215 2.04997 0.0 
9.56711 0.537462 0.0 
2.83587 2.07543 0.0 
2.81215 2.05001 0.0 
2.80472 2.05001 0.0 
2.79507 2.04997 0.0 
2.79965 2.05 0.0 
2.74971 1.15802 0.0 
6.66562 3.18401 0.0 
2.78966 2.04993 0.0 
3.68248 0 0.0 
2.78466 2.04988 0.0 
9.45522 2.67434 0.0 
2.77966 2.04982 0.0 
7.88728 1.90278 0.0 
2.77466 2.04975 0.0 
8.95269 0.105804 0.0 
2.77216 2.04971 0.0 
2.76716 2.04961 0.0 
2.76467 2.04956 0.0 
8.49528 2.50007 0.0 
2.75967 2.04946 0.0 
2.75467 2.04934 0.0 
6.69534 2.37564 0.0 
2.74967 2.0492 0.0 
2.38299 1.40043 0.0 
2.74468 2.04906 0.0 
9.51856 2.75585 0.0 
2.73968 2.04891 0.0 
2.73469 2.04874 0.0 
9.41426 2.76593 0.0 
2.73219 2.04865 0.0 
2.72719 2.04847 0.0 
2.72261 2.04829 0.0 
7.07481 1.96072 0.0 
6.25672 2.55423 0.0 
2.7172 2.04806 0.0 
8.83747 2.67733 0.0 
6.05949 2.48292 0.0 
2.71221 2.04785 0.0 
6.62 2.79701 0.0 
2.70472 2.0475 0.0 
2.67763 2.04605 0.0 
2.69045 2.04677 0.0 
2.69475 2.047 0.0 
7.9971 0.832157 0.0 
4.48418 1.12971 0.0 
2.68477 2.04646 0.0 
5.22315 1.80655 0.0 
6.43197 2.27305 0.0 
2.67479 2.04588 0.0 
9.04251 2.70224 0.0 
2.66978 2.04558 0.0 
2.6648 2.04526 0.0 
9.48102 3.02398 0.0 
2.65981 2.04494 0.0 
8.79605 3.01706 0.0 
2.65482 2.04461 0.0 
2.40884 2.53626 0.0 
2.64741 2.04409 0.0 
8.98557 2.77888 0.0 
8.27749 0.708363 0.0 
2.63986 2.04355 0.0 
4 4 0.0 
2.63239 2.04298 0.0 
5.31058 1.48023 0.0 
2.62498 2.0424 0.0 
8.23459 1.16471 0.0 
2.62242 2.0422 0.0 
1.69508 1.21458 0.0 
2.61495 2.04158 0.0 
9.08968 2.78231 0.0 
2.60755 2.04095 0.0 
9.42671 3.11439 0.0 
4.54495 0.873229 0.0 
2.60001 2.04028 0.0 
5.25422 2.73436 0.0 
2.58798 2.03916 0.0 
2.59254 2.03959 0.0 
6.48051 3.12278 0.0 
5.5023 4 0.0 
8.97315 2.9414 0.0 
2.58259 2.03864 0.0 
9.42058 2.93769 0.0 
3.21374 1.9286 0.0 
2.57513 2.0379 0.0 
2.57264 2.03764 0.0 
2.57016 2.03735 0.0 
2.56768 2.03702 0.0 
2.56522 2.03662 0.0 
2.56276 2.03616 0.0 
2.56031 2.03565 0.0 
2.55788 2.03508 0.0 
2.55546 2.03446 0.0 
2.55305 2.03379 0.0 
2.55066 2.03307 0.0 
2.54828 2.0323 0.0 
2.54592 2.03148 0.0 
2.54357 2.03062 0.0 
2.54124 2.02971 0.0 
2.53893 2.02876 0.0 
2.53664 2.02777 0.0 
2.53436 2.02674 0.0 
2.5321 2.02567 0.0 
2.52986 2.02456 0.0 
2.52764 2.02342 0.0 
2.52544 2.02224 0.0 
2.52325 2.02103 0.0 
2.52108 2.01978 0.0 
2.51893 2.01851 0.0 
2.5168 2.0172 0.0 
2.51469 2.01587 0.0 
2.51259 2.01451 0.0 
2.51052 2.01312 0.0 
2.50845 2.0117 0.0 
2.50644 2.01022 0.0 
2.50456 2.00858 0.0 
2.50283 2.00678 0.0 
2.50139 2.00474 0.0 
2.50037 2.00246 0.0 
2.5 2 0.0 
2.50037 1.99754 0.0 
2.50139 1.99526 0.0 
2.50283 1.99322 0.0 
2.50456 1.99142 0.0 
2.50644 1.98978 0.0 
2.50845 1.9883 0.0 
2.51052 1.98688 0.0 
2.51259 1.98549 0.0 
2.51469 1.98413 0.0 
2.5168 1.9828 0.0 
2.51893 1.98149 0.0 
2.52108 1.98022 0.0 
2.52325 1.97897 0.0 
2.52544 1.97776 0.0 
2.52764 1.97658 0.0 
2.52986 1.97544 0.0 
2.5321 1.97433 0.0 
2.53436 1.97326 0.0 
2.53664 1.97223 0.0 
2.53893 1.97124 0.0 
2.54124 1.97029 0.0 
2.54357 1.96938 0.0 
2.54592 1.96852 0.0 
2.54828 1.9677 0.0 
2.55066 1.96693 0.0 
2.55305 1.96621 0.0 
2.55546 1.96554 0.0 
2.55788 1.96492 0.0 
2.56031 1.96435 0.0 
2.56276 1.96384 0.0 
2.56522 1.96338 0.0 
2.56768 1.96298 0.0 
2.57016 1.96265 0.0 
2.57264 1.96236 0.0 
2.57513 1.9621 0.0 
2.58259 1.96136 0.0 
2.10711 3.14008 0.0 
2.58998 1.96065 0.0 
5.90872 0.820057 0.0 
2.59503 1.96018 0.0 
2.60001 1.95972 0.0 
9.62748 0.429652 0.0 
2.60499 1.95928 0.0 
2.60997 1.95884 0.0 
1.81278 3.15931 0.0 
2.61495 1.95842 0.0 
2.61993 1.95801 0.0 
8.3416 3.67428 0.0 
2.62491 1.9576 0.0 
2.62989 1.95721 0.0 
2.00612 3.05741 0.0 
2.63488 1.95683 0.0 
2.63986 1.95645 0.0 
2.64485 1.95609 0.0 
4.49088 0.755642 0.0 
2.64983 1.95574 0.0 
2.6623 1.9549 0.0 
2.65482 1.95539 0.0 
2.65981 1.95506 0.0 
8.17613 1.24546 0.0 
8.32922 1.37667 0.0 
2.66729 1.95458 0.0 
11.2956 1.25205 0.0 
4.3396 1.47049 0.0 
2.67228 1.95427 0.0 
2.67727 1.95397 0.0 
4.89173 1.06607 0.0 
2.68475 1.95354 0.0 
7.1797 3.01234 0.0 
2.69217 1.95314 0.0 
11.1454 3.21 0.0 
2.69723 1.95288 0.0 
2.69973 1.95275 0.0 
8.65293 3.5846 0.0 
2.70715 1.95239 0.0 
6.98436 0.577155 0.0 
1.72691 1.7166 0.0 
2.71221 1.95215 0.0 
2.7172 1.95194 0.0 
2.97633 2.66185 0.0 
2.7222 1.95173 0.0 
8.83401 3.49003 0.0 
2.72719 1.95153 0.0 
5.32901 2.82744 0.0 
10.5184 4 0.0 
2.73219 1.95135 0.0 
2.73718 1.95118 0.0 
2.11601 2.60377 0.0 
11.6154 4 0.0 
2.74218 1.95102 0.0 
5.77979 1.61961 0.0 
2.74967 1.9508 0.0 
2.76007 1.95054 0.0 
2.7571 1.9506 0.0 
1.64636 2.6782 0.0 
1.27321 0 0.0 
2.76467 1.95043 0.0 
2.76966 1.95034 0.0 
6.6018 2.00745 0.0 
2.77216 1.95029 0.0 
2.77716 1.95021 0.0 
2.77966 1.95018 0.0 
2.78466 1.95012 0.0 
2.79209 1.95005 0.0 
2.87817 1.47872 0.0 
2.79715 1.95001 0.0 
1.90385 2.93787 0.0 
2.48313 3.20741 0.0 
2.80215 1.94999 0.0 
2.80715 1.94998 0.0 
4.65772 1.42674 0.0 
2.81215 1.94999 0.0 
2.81715 1.95 0.0 
6.53797 2.04299 0.0 
1.86132 1.09968 0.0 
4.96217 3.12471 0.0 
2.82215 1.95003 0.0 
2.82714 1.95006 0.0 
2.82964 1.95009 0.0 
1.95141 1.68591 0.0 
2.83707 1.95017 0.0 
2.84464 1.95029 0.0 
2.84964 1.95038 0.0 
8.28963 0.891942 0.0 
2.85463 1.95048 0.0 
12 1.23431 0.0 
6.45076 2.55191 0.0 
2.86213 1.95066 0.0 
2.86713 1.95079 0.0 
3.03208 0.590794 0.0 
2.87212 1.95093 0.0 
2.87712 1.95109 0.0 
5.92551 2.39886 0.0 
2.88211 1.95125 0.0 
7.52041 1.95005 0.0 
2.88711 1.95143 0.0 
3.94596 1.96105 0.0 
2.8921 1.95162 0.0 
2.55955 2.10907 0.0 
2.8971 1.95183 0.0 
2.36756 2.59122 0.0 
2.90417 1.95213 0.0 
2.91208 1.95248 0.0 
2.41845 0.54956 0.0 
2.92207 1.95294 0.0 
4.98013 2.59309 0.0 
2.93157 1.95339 0.0 
1.73985 0 0.0 
2.94154 1.95387 0.0 
2.95152 1.95437 0.0 
3.04684 0.820813 0.0 
2.96201 1.95491 0.0 
3.15334 2.0824 0.0 
2.9715 1.95541 0.0 
8.21919 1.62771 0.0 
2.98147 1.95595 0.0 
0.966707 1.21788 0.0 
2.99145 1.95651 0.0 
2.48713 1.20211 0.0 
3.00193 1.95711 0.0 
6.74826 3.04677 0.0 
3.01143 1.95767 0.0 
2.52184 4 0.0 
3.02139 1.95827 0.0 
2.86622 0.783757 0.0 
3.03137 1.95889 0.0 
2.28594 3.06106 0.0 
3.04135 1.95952 0.0 
8.55526 1.23176 0.0 
3.05132 1.96016 0.0 
1.97481 2.84888 0.0 
3.0618 1.96086 0.0 
6.67764 1.24793 0.0 
3.07177 1.96153 0.0 
0.769062 1.4551 0.0 
3.08126 1.96219 0.0 
3.36352 2.09583 0.0 
3.09172 1.96293 0.0 
3.09837 1.96341 0.0 
10.1159 4 0.0 
8.76544 2.38276 0.0 
3.11166 1.96438 0.0 
6.44646 2.19183 0.0 
3.12114 1.96509 0.0 
3.1311 1.96585 0.0 
6.86748 2.2434 0.0 
3.14156 1.96667 0.0 
4.12972 2.10797 0.0 
3.15104 1.96742 0.0 
8.26271 1.45414 0.0 
1.31732 1.6016 0.0 
3.17146 1.96907 0.0 
3.39297 2.03424 0.0 
3.18336 1.97004 0.0 
0 3.32242 0.0 
3.20135 1.97152 0.0 
3.22072 1.97314 0.0 
3.22302 1.20467 0.0 
3.77061 2.2698 0.0 
3.23123 1.97403 0.0 
6.26813 0.912411 0.0 
3.24555 1.97525 0.0 
8.58402 0.30847 0.0 
3.26112 1.97659 0.0 
2.72907 2.38002 0.0 
1.96211 2.17277 0.0 
3.28104 1.97833 0.0 
2.82199 1.46482 0.0 
3.51051 2.44123 0.0 
3.30038 1.98003 0.0 
3.56954 1.22819 0.0 
3.57932 2.15777 0.0 
3.31787 1.9816 0.0 
8.37508 1.48322 0.0 
3.33233 1.9829 0.0 
5.22776 3.41586 0.0 
8.68938 1.7583 0.0 
3.35073 1.98458 0.0 
1.50522 0 0.0 
3.37064 1.98642 0.0 
1.04781 0 0.0 
5.05447 3.32249 0.0 
3.39055 1.98829 0.0 
4.50322 1.17767 0.0 
10.3114 4 0.0 
3.41483 1.99059 0.0 
6.59792 1.73349 0.0 
[...]
<PointData>
  <DataArray type = "Float64" Name="Vitesse" NumberOfComponents="3" format="ascii">
-2.27984e-63 0 0.0 
-2.27984e-63 0 0.0 
1 0 0.0 
1.05585 0 0.0 
1 0 0.0 
1.05587 0 0.0 
1.02054 -0.0132848 0.0 
0.908989 -0.0103687 0.0 
0.962805 -0.00388391 0.0 
0.111426 -0.00307061 0.0 
-2.27984e-63 0 0.0 
-2.27984e-63 0 0.0 
1.05784 0.000358659 0.0 
1.07178 0 0.0 
-2.27984e-63 0 0.0 
1.0823 -0.00703368 0.0 
-2.27984e-63 0 0.0 
1.08033 0.00284922 0.0 
-2.27984e-63 0 0.0 
1.05613 0.000615605 0.0 
-2.27984e-63 0 0.0 
1.10086 0.00314797 0.0 
0.751018 0.0435665 0.0 
0.813413 -0.00977282 0.0 
-2.27984e-63 0 0.0 
1.0591 -0.000622041 0.0 
-2.27984e-63 0 0.0 
-2.27984e-63 0 0.0 
1.06433 -0.00270612 0.0 
-2.27984e-63 0 0.0 
1.07215 0 0.0 
0.868351 0.0119365 0.0 
-2.27984e-63 0 0.0 
1.0332 -0.00195278 0.0 
-2.27984e-63 0 0.0 
0.749777 -0.00170336 0.0 
0.739476 -0.00123349 0.0 
1.08902 0.0128399 0.0 
-2.27984e-63 0 0.0 
1.05758 0.000184929 0.0 
1.03193 0.00349292 0.0 
-2.27984e-63 0 0.0 
-2.27984e-63 0 0.0 
-2.27984e-63 0 0.0 
-2.27984e-63 0 0.0 
0.997518 0.00185494 0.0 
1.06384 -0.00113278 0.0 
-2.27984e-63 0 0.0 
-2.27984e-63 0 0.0 
0.998341 0.00123953 0.0 
1.06431 -0.00118893 0.0 
-2.27984e-63 0 0.0 
1.05845 -0.00154861 0.0 
-2.27984e-63 0 0.0 
1.07884 0.0094719 0.0 
-2.27984e-63 0 0.0 
0.999488 0.0164198 0.0 
-2.27984e-63 0 0.0 
0.969623 0.0307376 0.0 
-2.27984e-63 0 0.0 
1.05686 0.00192684 0.0 
-2.27984e-63 0 0.0 
1.0452 -0.00172411 0.0 
-2.27984e-63 0 0.0 
0.805412 0.00468637 0.0 
-2.27984e-63 0 0.0 
-2.27984e-63 0 0.0 
-2.27984e-63 0 0.0 
0.979449 0.0864096 0.0 
-2.27984e-63 0 0.0 
1.07213 0 0.0 
-2.27984e-63 0 0.0 
1.02805 -0.00329326 0.0 
-2.27984e-63 0 0.0 
-2.27984e-63 0 0.0 
0.748764 -0.00389577 0.0 
-2.27984e-63 0 0.0 
0.517363 0.00561748 0.0 
1.059 0.00161165 0.0 
-2.27984e-63 0 0.0 
1.01646 0.0259686 0.0 
-2.27984e-63 0 0.0 
0.868864 -0.00374032 0.0 
-2.27984e-63 0 0.0 
1.06633 0 0.0 
-2.27984e-63 0 0.0 
0.199658 0.00794715 0.0 
-2.27984e-63 0 0.0 
1.04368 -0.00175369 0.0 
-2.27984e-63 0 0.0 
-2.27984e-63 0 0.0 
0.0062095 0.000481848 0.0 
1.06181 0.00174308 0.0 
-2.27984e-63 0 0.0 
1.00386 -0.00380686 0.0 
-2.27984e-63 0 0.0 
1.07022 0.00043097 0.0 
1.04446 -0.00131583 0.0 
-2.27984e-63 0 0.0 
-2.27984e-63 0 0.0 
1.05989 0.000793623 0.0 
-2.27984e-63 0 0.0 
0.995302 -0.0221392 0.0 
-2.27984e-63 0 0.0 
-2.27984e-63 0 0.0 
0.772078 -0.0080999 0.0 
1.0836 0.0144128 0.0 
-2.27984e-63 0 0.0 
1.06478 -0.0269754 0.0 
-2.27984e-63 0 0.0 
1.0806 -0.0130872 0.0 
1.06599 0.00672277 0.0 
-2.27984e-63 0 0.0 
-2.27984e-63 0 0.0 
0.791499 -0.0209104 0.0 
1.02149 0.00214397 0.0 
-2.27984e-63 0 0.0 
1.05973 0.00113654 0.0 
-2.27984e-63 0 0.0 
0.662311 0.0133237 0.0 
-2.27984e-63 0 0.0 
-2.27984e-63 0 0.0 
1.01219 -0.00414197 0.0 
-2.27984e-63 0 0.0 
-2.27984e-63 0 0.0 
-2.27984e-63 0 0.0 
0.836314 -0.00953831 0.0 
-2.27984e-63 0 0.0 
-2.27984e-63 0 0.0 
1.05821 0.000482837 0.0 
0.208174 0.00349469 0.0 
-2.27984e-63 0 0.0 
-2.27984e-63 0 0.0 
-2.27984e-63 0 0.0 
-2.27984e-63 0 0.0 
1.0605 -0.0566112 0.0 
1.06369 -0.00246641 0.0 
-2.27984e-63 0 0.0 
1.06934 0 0.0 
-2.27984e-63 0 0.0 
1.00907 -0.00350758 0.0 
-2.27984e-63 0 0.0 
0.781757 0.00290454 0.0 
-2.27984e-63 0 0.0 
1.05814 0.000115152 0.0 
-2.27984e-63 0 0.0 
-2.27984e-63 0 0.0 
-2.27984e-63 0 0.0 
0.961001 -0.0055073 0.0 
-2.27984e-63 0 0.0 
-2.27984e-63 0 0.0 
0.909994 -0.00988928 0.0 
-2.27984e-63 0 0.0 
1.01395 -0.0772952 0.0 
-2.27984e-63 0 0.0 
1.02634 -0.00285678 0.0 
-2.27984e-63 0 0.0 
-2.27984e-63 0 0.0 
1.02904 -0.00273526 0.0 
-2.27984e-63 0 0.0 
-2.27984e-63 0 0.0 
-2.27984e-63 0 0.0 
0.742837 0.00152947 0.0 
1.01218 -0.00850951 0.0 
-2.27984e-63 0 0.0 
1.01529 -0.00366477 0.0 
0.983972 -0.0105552 0.0 
-2.27984e-63 0 0.0 
1.05646 -0.00430008 0.0 
-2.27984e-63 0 0.0 
-2.27984e-63 0 0.0 
-2.27984e-63 0 0.0 
-2.27984e-63 0 0.0 
1.06057 0.00137896 0.0 
1.07896 0.00781093 0.0 
-2.27984e-63 0 0.0 
0.735628 0.0167309 0.0 
0.835898 -0.0106959 0.0 
-2.27984e-63 0 0.0 
1.01936 -0.00321428 0.0 
-2.27984e-63 0 0.0 
-2.27984e-63 0 0.0 
1.05387 -0.00130758 0.0 
-2.27984e-63 0 0.0 
1.05612 -0.00146884 0.0 
-2.27984e-63 0 0.0 
1.01138 0.0879097 0.0 
-2.27984e-63 0 0.0 
1.03421 -0.00276415 0.0 
1.06008 0.00102156 0.0 
-2.27984e-63 0 0.0 
1.07167 0 0.0 
-2.27984e-63 0 0.0 
1.02117 0.0127393 0.0 
-2.27984e-63 0 0.0 
1.04755 0.0025821 0.0 
-2.27984e-63 0 0.0 
0.998856 -0.0230155 0.0 
-2.27984e-63 0 0.0 
1.03413 -0.00270465 0.0 
-2.27984e-63 0 0.0 
1.05673 -0.00103472 0.0 
1.07626 0.0048036 0.0 
-2.27984e-63 0 0.0 
1.06591 -0.00843506 0.0 
-2.27984e-63 0 0.0 
-2.27984e-63 0 0.0 
1.06434 -0.00291568 0.0 
1.06713 0 0.0 
1.05175 -0.00176683 0.0 
-2.27984e-63 0 0.0 
1.0493 -0.00169569 0.0 
0.20213 0.012364 0.0 
-2.27984e-63 0 0.0 
-2.27984e-63 0 0.0 
-2.27984e-63 0 0.0 
-2.27984e-63 0 0.0 
-2.27984e-63 0 0.0 
-2.27984e-63 0 0.0 
-2.27984e-63 0 0.0 
-2.27984e-63 0 0.0 
-2.27984e-63 0 0.0 
-2.27984e-63 0 0.0 
-2.27984e-63 0 0.0 
-2.27984e-63 0 0.0 
-2.27984e-63 0 0.0 
-2.27984e-63 0 0.0 
-2.27984e-63 0 0.0 
-2.27984e-63 0 0.0 
-2.27984e-63 0 0.0 
-2.27984e-63 0 0.0 
-2.27984e-63 0 0.0 
-2.27984e-63 0 0.0 
-2.27984e-63 0 0.0 
-2.27984e-63 0 0.0 
-2.27984e-63 0 0.0 
-2.27984e-63 0 0.0 
-2.27984e-63 0 0.0 
-2.27984e-63 0 0.0 
-2.27984e-63 0 0.0 
-2.27984e-63 0 0.0 
-2.27984e-63 0 0.0 
-2.27984e-63 0 0.0 
-2.27984e-63 0 0.0 
-2.27984e-63 0 0.0 
-2.27984e-63 0 0.0 
-2.27984e-63 0 0.0 
-2.27984e-63 0 0.0 
-2.27984e-63 0 0.0 
-2.27984e-63 0 0.0 
-2.27984e-63 0 0.0 
-2.27984e-63 0 0.0 
-2.27984e-63 0 0.0 
-2.27984e-63 0 0.0 
-2.27984e-63 0 0.0 
-2.27984e-63 0 0.0 
-2.27984e-63 0 0.0 
-2.27984e-63 0 0.0 
-2.27984e-63 0 0.0 
-2.27984e-63 0 0.0 
-2.27984e-63 0 0.0 
-2.27984e-63 0 0.0 
-2.27984e-63 0 0.0 
-2.27984e-63 0 0.0 
-2.27984e-63 0 0.0 
-2.27984e-63 0 0.0 
-2.27984e-63 0 0.0 
-2.27984e-63 0 0.0 
-2.27984e-63 0 0.0 
-2.27984e-63 0 0.0 
-2.27984e-63 0 0.0 
-2.27984e-63 0 0.0 
-2.27984e-63 0 0.0 
-2.27984e-63 0 0.0 
-2.27984e-63 0 0.0 
-2.27984e-63 0 0.0 
-2.27984e-63 0 0.0 
-2.27984e-63 0 0.0 
-2.27984e-63 0 0.0 
-2.27984e-63 0 0.0 
-2.27984e-63 0 0.0 
-2.27984e-63 0 0.0 
-2.27984e-63 0 0.0 
-2.27984e-63 0 0.0 
-2.27984e-63 0 0.0 
1.01955 0.0287249 0.0 
-2.27984e-63 0 0.0 
1.06646 0.00364145 0.0 
-2.27984e-63 0 0.0 
-2.27984e-63 0 0.0 
1.05795 0.000373363 0.0 
-2.27984e-63 0 0.0 
-2.27984e-63 0 0.0 
1.01085 0.0206747 0.0 
-2.27984e-63 0 0.0 
-2.27984e-63 0 0.0 
1.05919 -0.000455097 0.0 
-2.27984e-63 0 0.0 
-2.27984e-63 0 0.0 
1.01389 0.0288956 0.0 
-2.27984e-63 0 0.0 
-2.27984e-63 0 0.0 
-2.27984e-63 0 0.0 
1.07575 0.00347905 0.0 
-2.27984e-63 0 0.0 
-2.27984e-63 0 0.0 
-2.27984e-63 0 0.0 
-2.27984e-63 0 0.0 
1.03735 0.00328302 0.0 
1.00589 0.0045527 0.0 
-2.27984e-63 0 0.0 
1.01262 0.00267179 0.0 
1.06124 0.0169088 0.0 
-2.27984e-63 0 0.0 
-2.27984e-63 0 0.0 
1.07363 0.00721217 0.0 
-2.27984e-63 0 0.0 
1.06159 -0.00240644 0.0 
-2.27984e-63 0 0.0 
1.05502 -0.000769893 0.0 
-2.27984e-63 0 0.0 
-2.27984e-63 0 0.0 
1.05895 -0.000512722 0.0 
-2.27984e-63 0 0.0 
1.06229 0.00149886 0.0 
0.977874 -0.0165339 0.0 
-2.27984e-63 0 0.0 
-2.27984e-63 0 0.0 
1.09209 0.0608964 0.0 
-2.27984e-63 0 0.0 
1.05894 -0.000590298 0.0 
-2.27984e-63 0 0.0 
1.06863 -0.00717225 0.0 
1.05677 0 0.0 
-2.27984e-63 0 0.0 
-2.27984e-63 0 0.0 
0.994868 0.0512085 0.0 
1.0561 0 0.0 
-2.27984e-63 0 0.0 
0.922621 0.0135988 0.0 
-2.27984e-63 0 0.0 
-2.27984e-63 0 0.0 
-2.27984e-63 0 0.0 
0.99509 0.0212877 0.0 
1.00732 0 0.0 
-2.27984e-63 0 0.0 
-2.27984e-63 0 0.0 
0.719049 -0.000301759 0.0 
-2.27984e-63 0 0.0 
-2.27984e-63 0 0.0 
-2.27984e-63 0 0.0 
-2.27984e-63 0 0.0 
-2.27984e-63 0 0.0 
1.09617 -0.0860481 0.0 
-2.27984e-63 0 0.0 
1.00732 0.0288358 0.0 
1.03828 0.0318106 0.0 
-2.27984e-63 0 0.0 
-2.27984e-63 0 0.0 
1.05909 0.014187 0.0 
-2.27984e-63 0 0.0 
-2.27984e-63 0 0.0 
0.717507 -0.00204119 0.0 
1.00506 -0.028038 0.0 
1.07244 -0.00539847 0.0 
-2.27984e-63 0 0.0 
-2.27984e-63 0 0.0 
-2.27984e-63 0 0.0 
0.968102 -0.0319586 0.0 
-2.27984e-63 0 0.0 
-2.27984e-63 0 0.0 
-2.27984e-63 0 0.0 
1.05953 0.00136763 0.0 
-2.27984e-63 0 0.0 
1.01454 0.00445851 0.0 
1.00796 -0.00786163 0.0 
-2.27984e-63 0 0.0 
-2.27984e-63 0 0.0 
1.06144 -0.0182898 0.0 
-2.27984e-63 0 0.0 
-2.27984e-63 0 0.0 
0.934145 -0.0124733 0.0 
-2.27984e-63 0 0.0 
0.76344 0.00141112 0.0 
-2.27984e-63 0 0.0 
0.377508 0.0136454 0.0 
-2.27984e-63 0 0.0 
0.877382 0.273905 0.0 
-2.27984e-63 0 0.0 
1.01138 0.0768477 0.0 
-2.27984e-63 0 0.0 
-2.27984e-63 0 0.0 
1.03564 -0.0201206 0.0 
-2.27984e-63 0 0.0 
1.05352 -0.0122331 0.0 
-2.27984e-63 0 0.0 
1.0158 0 0.0 
-2.27984e-63 0 0.0 
-2.27984e-63 0 0.0 
1.06777 -0.0267482 0.0 
-2.27984e-63 0 0.0 
0.246249 -0.0122474 0.0 
-2.27984e-63 0 0.0 
0.903675 0.0064406 0.0 
-2.27984e-63 0 0.0 
0.999007 -0.00663458 0.0 
-2.27984e-63 0 0.0 
1.03488 -0.0610991 0.0 
-2.27984e-63 0 0.0 
1.06334 -0.00278941 0.0 
-2.27984e-63 0 0.0 
1.03935 0 0.0 
-2.27984e-63 0 0.0 
1.05855 -0.0291445 0.0 
-2.27984e-63 0 0.0 
1.0261 0.0368303 0.0 
-2.27984e-63 0 0.0 
1.03618 0.00302351 0.0 
-2.27984e-63 0 0.0 
1.00579 0.0342054 0.0 
-2.27984e-63 0 0.0 
1.05182 0.0045517 0.0 
-2.27984e-63 0 0.0 
0.998412 -0.00385346 0.0 
-2.27984e-63 0 0.0 
0.33652 -0.0231342 0.0 
-2.27984e-63 0 0.0 
-2.27984e-63 0 0.0 
1.05707 0 0.0 
0.908781 -0.00567527 0.0 
-2.27984e-63 0 0.0 
0.779265 -0.00865512 0.0 
-2.27984e-63 0 0.0 
-2.27984e-63 0 0.0 
0.821788 -0.00861669 0.0 
-2.27984e-63 0 0.0 
0.51537 -0.0271475 0.0 
-2.27984e-63 0 0.0 
0.980589 0.0053956 0.0 
0.992035 -0.00882167 0.0 
-2.27984e-63 0 0.0 
0.0908431 -0.00829814 0.0 
-2.27984e-63 0 0.0 
1 0 0.0 
-2.27984e-63 0 0.0 
-2.27984e-63 0 0.0 
1.09452 -0.0335449 0.0 
0.863845 -0.0424293 0.0 
-2.27984e-63 0 0.0 
1.06509 0.00339187 0.0 
-2.27984e-63 0 0.0 
1.05881 0.000388148 0.0 
-2.27984e-63 0 0.0 
1.08429 0.132617 0.0 
0.955842 0.0214714 0.0 
-2.27984e-63 0 0.0 
1.08647 -0.0900048 0.0 
1.10363 0.00236007 0.0 
-2.27984e-63 0 0.0 
1.09911 -0.0109463 0.0 
0.575313 -0.0540054 0.0 
-2.27984e-63 0 0.0 
0.968334 0.00555776 0.0 
-2.27984e-63 0 0.0 
1.06957 -0.00323589 0.0 
0.847009 0.00479811 0.0 
-2.27984e-63 0 0.0 
1.01099 0 0.0 
-2.27984e-63 0 0.0 
1.00466 0 0.0 
1.071 -0.00389535 0.0 
-2.27984e-63 0 0.0 
1.07875 0.00864495 0.0 
1.05692 0 0.0 
-2.27984e-63 0 0.0 
0.833851 0.00970902 0.0 
-2.27984e-63 0 0.0 
0.977068 -0.0135276 0.0 
-2.27984e-63 0 0.0 
0.768125 -0.0407329 0.0 
1.05691 0.00394332 0.0 
-2.27984e-63 0 0.0 
1.05879 0.000489459 0.0 
0.353375 -0.0277468 0.0 
0.162931 -0.0110613 0.0 
1.0002 0 0.0 
1.00099 0 0.0 
0.977029 -0.00184105 0.0 
0.98463 -0.0137766 0.0 
1.08492 0.0160021 0.0 
1.06276 0.000746557 0.0 
1.02185 0 0.0 
0.615263 -0.0454428 0.0 
0.958651 0.00727663 0.0 
1.04973 -0.00558588 0.0 
1.06208 0.000738629 0.0 
0.878176 0.00446475 0.0 
1.06999 0 0.0 
1.07174 0 0.0 
1.07094 0 0.0 
0.982291 -0.0155374 0.0 
1.05944 0 0.0 
0.340168 -0.0194899 0.0 
1.05992 0 0.0 
1.01902 0.0120241 0.0 
0.581289 -0.0452215 0.0 
1.06188 0.00195316 0.0 
1.05663 0 0.0 
1.05635 0 0.0 
1.0613 0 0.0 
1.07783 0.00540905 0.0 
1.04783 -0.00549275 0.0 
1.00369 0.0287949 0.0 
0.98896 -0.073737 0.0 
1.05689 0 0.0 
1.04427 -0.00469984 0.0 
1.05196 0.0370426 0.0 
1.11488 0.0575758 0.0 
1.06018 -0.000801061 0.0 
1.05707 0 0.0 
1 0 0.0 
1.05616 0 0.0 
1.07181 0.00249986 0.0 
1.056 0 0.0 
1.06652 0 0.0 
1.05334 0.0289861 0.0 
0.859261 -0.0679189 0.0 
1.05224 0 0.0 
0.536896 0.0235114 0.0 
0.848837 0.000527226 0.0 
0.863293 -0.00436707 0.0 
1.05599 0 0.0 
1.02012 0 0.0 
0.953436 0.246011 0.0 
0.978336 0.0171019 0.0 
0.966979 0.0483443 0.0 
0.992461 -0.0199796 0.0 
1.04741 -0.00194658 0.0 
1.05575 -0.00098056 0.0 
1.09728 0.0230829 0.0 
1.0565 0 0.0 
1.06653 -0.00381278 0.0 
0.968213 0.00591758 0.0 
1.06234 -0.00187819 0.0 
1.05513 -0.000600954 0.0 
1.05625 -0.000283301 0.0 
1.05604 -0.000137912 0.0 
1.05632 0 0.0 
0.836172 -0.0359926 0.0 
0.93266 0.0291368 0.0 
1.05158 -0.0301394 0.0 
1.08507 -0.0309956 0.0 
1 0 0.0 
0.929748 -0.0322132 0.0 
0.311387 0.00898776 0.0 
1.06673 0.00461038 0.0 
1.03463 0.0592658 0.0 
1 0 0.0 
0.996254 -0.0949173 0.0 
1.06027 -0.000670824 0.0 
1.0623 0.00384522 0.0 
1.07263 -0.0121569 0.0 
0.724258 0.0336469 0.0 
1.01331 0.00519411 0.0 
1.01497 0 0.0 
1.07168 0.0215927 0.0 
0.804562 0.00979291 0.0 
1.06498 0.00133339 0.0 
1.0105 0 0.0 
1.04465 0 0.0 
0.886344 -0.00627213 0.0 
1.03224 0 0.0 
1.10638 0.0323825 0.0 
1 0 0.0 
1.06394 -0.000774131 0.0 
0.735889 -0.232095 0.0 
1.04307 -0.010096 0.0 
1.06967 0.00270084 0.0 
1.0069 0 0.0 
1.04659 0 0.0 
0.971903 -0.0555545 0.0 
1.06173 0 0.0 
1.00398 0.0197471 0.0 
1.03415 -0.00712001 0.0 
1 0 0.0 
1 0 0.0 
1.00095 0 0.0 
1.01309 0.0216009 0.0 
1.08399 -0.000632369 0.0 
1.00417 0 0.0 
1.00221 0 0.0 
1.11156 -0.0228472 0.0 
0.990161 -0.00177884 0.0 
1.00022 0 0.0 
0.0738526 0.00481338 0.0 
0.802472 0.210793 0.0 
1.03683 -0.00313107 0.0 
1.06918 -0.0014086 0.0 
1.05959 0.000928486 0.0 
1 0 0.0 
1 0 0.0 
1 0 0.0 
1 0 0.0 
1.05748 0.000176857 0.0 
1 0 0.0 
1 0 0.0 
1 0 0.0 
1 0 0.0 
1.06379 -0.00146796 0.0 
0.805633 -0.000905229 0.0 
1.02525 0.00772565 0.0 
1.05621 0.00136338 0.0 
0.887328 0.00619151 0.0 
1.07351 -0.000449193 0.0 
1.05663 6.54427e-05 0.0 
0.796877 -0.000362328 0.0 
0.894275 -0.00574821 0.0 
1.05604 -0.00163453 0.0 
1.03021 0.00843722 0.0 
1.05568 0.0311599 0.0 
1.00644 -0.0709628 0.0 
1.05995 -0.000935688 0.0 
0.896753 -0.134195 0.0 
1.06536 -0.00131235 0.0 
1.07193 -0.00407063 0.0 
0.826922 -0.0442145 0.0 
0.857249 0.00485735 0.0 
0.237216 -0.0145404 0.0 
1.06296 -0.013295 0.0 
1.06142 -0.00488971 0.0 
0.755715 -0.0402125 0.0 
0.953572 0.0039745 0.0 
0.0866547 0.00664255 0.0 
0.741881 -0.0471643 0.0 
0.213473 -0.0104748 0.0 
0.950942 -0.0107574 0.0 
0.0528159 -0.00316945 0.0 
1.05599 -0.000661766 0.0 
0.812476 0.0031418 0.0 
1.05607 -0.00100116 0.0 
0.616433 -0.000548649 0.0 
0.824544 -0.00381532 0.0 
1.00877 -0.0135572 0.0 
0.938695 -0.00615191 0.0 
1.06229 0.00188824 0.0 
1.05897 0.000689859 0.0 
1.05795 0.00102465 0.0 
1.0927 -0.00252843 0.0 
0.859131 0.00916384 0.0 
1.05616 0.000493278 0.0 
0.287842 0.10018 0.0 
1.08819 -0.0513149 0.0 
0.94651 -0.0995588 0.0 
0.960521 -0.00859494 0.0 
1.07597 -0.00563002 0.0 
0.344084 -0.0178678 0.0 
0.998439 -0.000851379 0.0 
1.06269 -0.00313232 0.0 
1.11855 0.0535779 0.0 
0.748647 -0.0136513 0.0 
0.473644 0.0399609 0.0 
1.06342 -0.0035155 0.0 
1.09001 0.01085 0.0 
0.995748 -0.00429287 0.0 
0.896506 -0.0105962 0.0 
0.395743 -0.011133 0.0 
1.07477 0.00767911 0.0 
1.01529 -0.00786496 0.0 
1.02998 0.0511034 0.0 
0.775972 -0.00241227 0.0 
0.732676 -0.319812 0.0 
0.835399 -0.0196023 0.0 
1.06368 0.00410667 0.0 
1.05852 -0.000440627 0.0 
0.836914 0.00435071 0.0 
0.996035 -0.00420442 0.0 
1.00175 0.00802059 0.0 
0.989854 -0.00447026 0.0 
1.09806 0.0454899 0.0 
0.82712 0.0448284 0.0 
0.997738 -0.00013052 0.0 
0.923618 -0.00636629 0.0 
0.49489 -0.0455488 0.0 
0.812586 -0.00341354 0.0 
0.970719 -0.260914 0.0 
1.03627 0.0510743 0.0 
1.01514 0.00795615 0.0 
1.08227 -0.0105048 0.0 
0.93965 -0.00420544 0.0 
0.131505 -0.00905196 0.0 
1.06127 -0.00396646 0.0 
0.927179 0.00939251 0.0 
1.05189 0.0938729 0.0 
0.864513 -0.00573863 0.0 
1.00012 -0.00800426 0.0 
1.00047 -0.00765831 0.0 
1.05866 0.000470492 0.0 
0.352916 0.00708472 0.0 
0.742437 0.000662005 0.0 
0.834473 -0.00476042 0.0 
1.09579 0.0131646 0.0 
1.03388 -0.00678578 0.0 
0.948234 0.0544428 0.0 
1.04209 0.00681185 0.0 
1.00995 -0.00440344 0.0 
0.0717593 -0.00873075 0.0 
0.878793 -0.0057733 0.0 
0.878157 -0.0121263 0.0 
0.300311 0.0146225 0.0 
1.07918 -0.0128191 0.0 
1.07801 0.0642698 0.0 
1.07917 0.0683505 0.0 
1.07046 0.00721481 0.0 
1.05002 0.00742481 0.0 
1.06844 0.00150348 0.0 
0.877816 -0.0313418 0.0 
0.993128 0.0446208 0.0 
1.07922 -9.03104e-05 0.0 
0.187298 -0.00761913 0.0 
0.377578 -0.0198056 0.0 
0.958818 0.120085 0.0 
0.579176 -0.0261299 0.0 
1.05562 0.130913 0.0 
0.344199 -0.0177017 0.0 
1.06482 -0.00125065 0.0 
0.88592 -0.0111162 0.0 
1.06113 -0.00366072 0.0 
1.06318 0.0028691 0.0 
0.872449 0.00582943 0.0 
1.03248 0.00694904 0.0 
1.06591 0.00550232 0.0 
0.859088 0.00537644 0.0 
1.05305 0.00390594 0.0 
0.389327 -0.0277979 0.0 
1.06534 0.00530327 0.0 
0.528862 0.0167118 0.0 
1.07436 0.00118497 0.0 
1.0116 0.031759 0.0 
1.07329 0.00242125 0.0 
1.06342 0.00183081 0.0 
0.943488 0.00570064 0.0 
1.04886 -0.00250721 0.0 
1.04187 0.00790248 0.0 
1.06052 0.00105777 0.0 
1.05643 -0.000544983 0.0 
1.06034 0.00455608 0.0 
1.04359 -0.00300702 0.0 
1.05499 -0.00226045 0.0 
0.921908 0.0061017 0.0 
0.566379 -0.0550584 0.0 
0.300061 -0.0187023 0.0 
0.955757 0.00566739 0.0 
0.362055 0.0541469 0.0 
0.506354 -0.00951506 0.0 
0.946522 0.0759556 0.0 
0.994397 0.112705 0.0 
0.785971 0.00871419 0.0 
1.03022 0.0478966 0.0 
1.06358 -0.00289356 0.0 
1.06202 -0.00180465 0.0 
0.986126 0.00817906 0.0 
1.00746 -0.0399411 0.0 
0.894129 0.00577179 0.0 
1.05674 5.50854e-05 0.0 
1.05841 0.000435103 0.0 
1.08043 -0.00457392 0.0 
1.0101 -0.0229918 0.0 
1.04666 0.022513 0.0 
1.08157 0.061527 0.0 
0.812392 0.0160024 0.0 
1.08429 -0.0136716 0.0 
1.05847 0 0.0 
1.11792 -0.0859535 0.0 
1.06184 0.00468929 0.0 
1.0487 0.00182518 0.0 
1.03705 -0.0205145 0.0 
1.00663 -0.0934999 0.0 
0.561224 -0.0302552 0.0 
1.04771 0.00464598 0.0 
1.05619 -0.000153187 0.0 
0.999192 -0.024923 0.0 
0.963085 0.00989943 0.0 
1.05705 0.000966979 0.0 
1.01976 -0.0241766 0.0 
1.02667 0.0168584 0.0 
1.06972 -0.00211737 0.0 
0.983957 -0.00577958 0.0 
1.11352 -0.0177114 0.0 
1.00062 0.14154 0.0 
1.07594 0.00251775 0.0 
1.06728 -0.00661863 0.0 
1.00179 -0.00474192 0.0 
0.902638 0.0391361 0.0 
1.05809 0.0166473 0.0 
1.01723 0.0606608 0.0 
1.03638 0.0023537 0.0 
1.06242 0 0.0 
0.194655 0.0140411 0.0 
0.569201 0.0399086 0.0 
0.750761 0.00936349 0.0 
0.971558 -0.00939341 0.0 
0.853582 0.00585813 0.0 
0.476511 0.00124701 0.0 
1.07284 -3.48635e-05 0.0 
0.518053 0.00725209 0.0 
1.02362 0.0696009 0.0 
0.992796 0.00293884 0.0 
0.168817 0.0122874 0.0 
0.159682 -0.0167711 0.0 
0.990848 0.0300282 0.0 
1.02619 0.0440932 0.0 
1.06334 -0.00221784 0.0 
0.0758729 -0.00252625 0.0 
0.629009 -0.0524016 0.0 
0.856074 -0.0128885 0.0 
1.02167 -0.002928 0.0 
1.01079 -0.0154519 0.0 
1.03079 0.00325047 0.0 
1.03754 0.0735992 0.0 
0.887484 0.00670988 0.0 
0.983864 0.0134452 0.0 
0.976787 -0.0953241 0.0 
1.04437 0.00158176 0.0 
1.0746 -0.00476471 0.0 
0.980626 -0.0193815 0.0 
1.05677 -0.000427094 0.0 
1.1045 0.000331112 0.0 
1.07016 0.00414855 0.0 
1.06571 -0.00586905 0.0 
0.0621262 -0.00512236 0.0 
0.264794 0.00900866 0.0 
1.01499 0.00596798 0.0 
1.11049 0.0540991 0.0 
0.956308 0.0115224 0.0 
1.0567 -0.000163505 0.0 
1.09918 -0.00314166 0.0 
1.05627 9.97226e-05 0.0 
1.00608 0.0422705 0.0 
1.05664 -0.000267556 0.0 
1.07697 0.000136409 0.0 
1.00127 -0.00357949 0.0 
0.289241 -0.0149449 0.0 
1.05626 -8.32311e-05 0.0 
0.999704 0.00796268 0.0 
1.079 0.0435963 0.0 
1.05427 -0.000661441 0.0 
1.06082 0.00119263 0.0 
1.04555 -0.00115755 0.0 
1.06236 0.00036616 0.0 
0.865965 0.00952985 0.0 
0.998399 0.00922294 0.0 
0.878513 0.0156977 0.0 
0.997359 -0.0122778 0.0 
1.05612 0.000453614 0.0 
0.89515 0.062768 0.0 
0.594625 0.0105538 0.0 
1.06359 0.00118031 0.0 
0.983502 -0.0517908 0.0 
0.824375 -0.00128521 0.0 
0.935061 0.00832936 0.0 
1.0214 0.0374265 0.0 
0.959027 0.00906346 0.0 
0.999983 0.00999649 0.0 
1.07432 0.00202762 0.0 
0.944029 0.0105622 0.0 
1.03644 0.022953 0.0 
0.915867 -0.0795042 0.0 
0.831187 -0.000250358 0.0 
1.06302 -0.00137476 0.0 
1.05406 -0.000658971 0.0 
1.07735 -0.00426618 0.0 
1.05627 -0.00034621 0.0 
0.698149 0.00410258 0.0 
0.799758 -0.0018446 0.0 
0.588507 -0.00699275 0.0 
0.669867 0.0110699 0.0 
1.05828 -0.000139428 0.0 
1.06025 0.00053062 0.0 
0.991095 -0.0235422 0.0 
0.932112 0.00568157 0.0 
0.749194 0.0042125 0.0 
0.792279 -0.0453004 0.0 
1.07076 -0.0463151 0.0 
0.978936 0.0222059 0.0 
1.11895 -0.0189664 0.0 
0.75665 0.0109171 0.0 
0.742675 0.00613428 0.0 
0.138973 -0.00631507 0.0 
1.02039 -0.0268459 0.0 
1.0578 -0.000277389 0.0 
1.07356 -0.017776 0.0 
1.04802 -0.0205375 0.0 
1.07397 0.000208669 0.0 
0.931835 0.00809728 0.0 
1.06337 0.069246 0.0 